# vtk DataFile Version 3.0
My problem

ASCII

DATASET UNSTRUCTURED_GRID

POINTS 219 float
0.248989794856 0.190000000000 0.000000000000
0.600000000000 0.190000000000 0.000000000000
0.600000000000 0.210000000000 0.000000000000
0.248989794856 0.210000000000 0.000000000000
0.150000000000 0.200000000000 0.000000000000
0.200000000000 0.150000000000 0.000000000000
0.200000000000 0.250000000000 0.000000000000
0.000000000000 0.000000000000 0.000000000000
2.500000000000 0.000000000000 0.000000000000
2.500000000000 0.410000000000 0.000000000000
0.000000000000 0.410000000000 0.000000000000
0.336742346142 0.190000000000 0.000000000000
0.424494897427 0.190000000000 0.000000000000
0.512247448714 0.190000000000 0.000000000000
0.000000000000 0.205000000001 0.000000000000
0.811444632134 0.200000000000 0.000000000000
0.141055056809 0.334766653500 0.000000000000
0.312224618120 0.326967980512 0.000000000000
0.310890093866 0.077914909499 0.000000000000
0.512247448714 0.210000000000 0.000000000000
0.424494897428 0.210000000000 0.000000000000
0.336742346142 0.210000000000 0.000000000000
0.089743248417 0.148877807294 0.000000000000
0.094125089635 0.257934478648 0.000000000000
0.292866070499 0.256137002944 0.000000000000
0.292866070499 0.143862997341 0.000000000000
0.164644661002 0.164644660879 0.000000000000
0.234807152693 0.100927444057 0.000000000000
0.151039468757 0.087915444092 0.000000000000
0.231622776688 0.161270166609 0.000000000000
0.583493562250 0.334947355369 0.000000000000
0.223783463494 0.301037700553 0.000000000000
0.231622776514 0.238729833533 0.000000000000
0.582688006490 0.070232401107 0.000000000000
0.488198414358 0.119322922687 0.000000000000
0.164644660879 0.235355338998 0.000000000000
0.488332673692 0.283810842461 0.000000000000
0.672039863667 0.286432887924 0.000000000000
0.226269332004 0.000000000000 0.000000000000
0.473017787376 0.000000000000 0.000000000000
0.742098886350 0.000000000000 0.000000000000
1.035533905597 0.000000000000 0.000000000000
1.355527063570 0.000000000000 0.000000000000
1.704482076286 0.000000000000 0.000000000000
2.085020215518 0.000000000000 0.000000000000
1.191311797019 0.204574829794 0.000000000000
0.671092828006 0.110483630153 0.000000000000
0.163607239260 0.283089168565 0.000000000000
1.530004569928 0.204999999668 0.000000000000
2.260798596372 0.204999999921 0.000000000000
0.387701601611 0.120183471588 0.000000000000
0.387946398916 0.282819304320 0.000000000000
1.894751145902 0.204999999527 0.000000000000
2.500000000000 0.204999999999 0.000000000000
0.571222709665 0.265038217151 0.000000000000
0.670915464761 0.199383303615 0.000000000000
2.085020216813 0.410000000000 0.000000000000
1.704482077305 0.410000000000 0.000000000000
1.355527064349 0.410000000000 0.000000000000
1.035533906169 0.410000000000 0.000000000000
0.742098886744 0.410000000000 0.000000000000
0.473017787617 0.410000000000 0.000000000000
0.226269332114 0.410000000000 0.000000000000
0.570845339514 0.136007790789 0.000000000000
1.894751147059 0.410000000000 0.000000000000
1.530004570827 0.410000000000 0.000000000000
1.195530485260 0.410000000000 0.000000000000
0.888816396456 0.410000000000 0.000000000000
0.607558337180 0.410000000000 0.000000000000
0.349643559866 0.410000000000 0.000000000000
0.113134666057 0.410000000000 0.000000000000
0.292866070499 0.190000000000 0.000000000000
0.000000000000 0.307500000000 0.000000000000
0.000000000000 0.102500000000 0.000000000000
0.380618621784 0.190000000000 0.000000000000
0.468371173071 0.190000000000 0.000000000000
0.556123724357 0.190000000000 0.000000000000
0.600000000000 0.200000000000 0.000000000000
0.556123724357 0.210000000000 0.000000000000
0.468371173071 0.210000000000 0.000000000000
0.380618621785 0.210000000000 0.000000000000
0.292866070499 0.210000000000 0.000000000000
0.153806023399 0.180865828321 0.000000000000
0.180865828451 0.153806023346 0.000000000000
0.216785534457 0.152901742782 0.000000000000
0.242789572381 0.174133950912 0.000000000000
0.242789572300 0.225866049222 0.000000000000
0.216785534276 0.247098257283 0.000000000000
0.180865828321 0.246193976601 0.000000000000
0.153806023346 0.219134171549 0.000000000000
0.113134666002 0.000000000000 0.000000000000
0.349643559690 0.000000000000 0.000000000000
0.607558336863 0.000000000000 0.000000000000
0.888816395973 0.000000000000 0.000000000000
1.195530484583 0.000000000000 0.000000000000
1.530004569928 0.000000000000 0.000000000000
1.894751145902 0.000000000000 0.000000000000
2.292510107759 0.000000000000 0.000000000000
2.500000000000 0.102500000000 0.000000000000
2.500000000000 0.307500000000 0.000000000000
2.292510108406 0.410000000000 0.000000000000
0.129384875257 0.246644908823 0.000000000000
0.122062544818 0.228967239324 0.000000000000
0.157842064879 0.126280052485 0.000000000000
0.175519734378 0.118957722046 0.000000000000
0.227703120004 0.269883767043 0.000000000000
0.211891731747 0.275518850277 0.000000000000
0.217403576346 0.125463722028 0.000000000000
0.233214964691 0.131098805333 0.000000000000
2.380399298186 0.102499999961 0.000000000000
2.172909405945 0.102499999961 0.000000000000
2.172909406593 0.307499999961 0.000000000000
2.380399298186 0.307499999961 0.000000000000
0.635546414003 0.150241815076 0.000000000000
0.585422669757 0.163003895395 0.000000000000
0.620969083760 0.123245710471 0.000000000000
0.636019931834 0.248216443962 0.000000000000
0.621631286666 0.275735552538 0.000000000000
0.585611354832 0.237519108575 0.000000000000
2.380399298186 0.204999999960 0.000000000000
0.923489269152 0.305000000000 0.000000000000
1.001378214577 0.202287414897 0.000000000000
1.113422851594 0.307287414897 0.000000000000
0.923489268865 0.100000000000 0.000000000000
1.113422851308 0.102287414897 0.000000000000
0.635457732381 0.194691651808 0.000000000000
0.635457732381 0.204691651808 0.000000000000
0.044871624208 0.074438903647 0.000000000000
0.044871624208 0.176938903647 0.000000000000
0.662393446420 0.035116200554 0.000000000000
0.706595857178 0.055241815076 0.000000000000
0.626890417248 0.090358015630 0.000000000000
0.047062544818 0.231467239324 0.000000000000
0.047062544818 0.333967239324 0.000000000000
0.662796224497 0.372473677684 0.000000000000
0.627766712958 0.310690121646 0.000000000000
0.707069375205 0.348216443962 0.000000000000
0.119871624208 0.174438903647 0.000000000000
0.091934169026 0.203406142971 0.000000000000
0.164125950070 0.259222253782 0.000000000000
0.128866164448 0.270511823607 0.000000000000
0.262244423593 0.152566581975 0.000000000000
0.270927932677 0.166931498671 0.000000000000
0.776771759439 0.305000000000 0.000000000000
0.314804208320 0.166931498671 0.000000000000
0.391953940621 0.038957454750 0.000000000000
0.430359694494 0.060091735794 0.000000000000
0.349295847739 0.099049190544 0.000000000000
0.270927932677 0.233068501472 0.000000000000
0.262244423507 0.247433418239 0.000000000000
0.314804208320 0.233068501472 0.000000000000
0.776771759242 0.100000000000 0.000000000000
0.127193954710 0.156761234086 0.000000000000
0.120391358587 0.118396625693 0.000000000000
0.070527528405 0.372383326750 0.000000000000
0.117590073222 0.296350566074 0.000000000000
0.193695351377 0.292063434559 0.000000000000
0.181803619630 0.266544584283 0.000000000000
0.392621202868 0.368483990256 0.000000000000
0.350085508518 0.304893642416 0.000000000000
0.430482093266 0.346409652160 0.000000000000
0.192923310725 0.094421444074 0.000000000000
0.263836611596 0.122395220699 0.000000000000
0.541546394114 0.163003895395 0.000000000000
0.258324766996 0.278587351749 0.000000000000
0.075519734378 0.043957722046 0.000000000000
0.541735079189 0.237519108575 0.000000000000
0.671477664214 0.242908095770 0.000000000000
0.671004146384 0.154933466884 0.000000000000
1.273419430684 0.307287414897 0.000000000000
1.273419430295 0.102287414897 0.000000000000
1.360658183474 0.204787414731 0.000000000000
1.442765817139 0.307499999834 0.000000000000
1.442765816749 0.102499999834 0.000000000000
0.480675230654 0.346905421231 0.000000000000
0.438139536304 0.283315073391 0.000000000000
1.617243323616 0.307499999834 0.000000000000
1.617243323107 0.102499999834 0.000000000000
1.712377857915 0.204999999598 0.000000000000
1.799616611603 0.307499999764 0.000000000000
1.799616611094 0.102499999764 0.000000000000
0.480608100867 0.059661461344 0.000000000000
0.437950007985 0.119753197138 0.000000000000
1.989885681358 0.307499999764 0.000000000000
1.989885680710 0.102499999764 0.000000000000
0.182419260152 0.317902177026 0.000000000000
0.152331148035 0.308927911032 0.000000000000
0.576766673002 0.103120095948 0.000000000000
0.577358135957 0.299992786260 0.000000000000
0.500290061203 0.246905421231 0.000000000000
0.456413785560 0.246905421231 0.000000000000
0.456346655893 0.154661461344 0.000000000000
0.500222931536 0.154661461344 0.000000000000
0.741742247901 0.243216443962 0.000000000000
0.741268730070 0.155241815076 0.000000000000
2.077774871137 0.204999999724 0.000000000000
0.741180048448 0.199691651808 0.000000000000
0.362221973876 0.155091735794 0.000000000000
0.406098249519 0.155091735794 0.000000000000
0.406220648172 0.246409652160 0.000000000000
0.362344372529 0.246409652160 0.000000000000
0.340283836055 0.132023234465 0.000000000000
0.340406234708 0.269478153632 0.000000000000
0.529521876936 0.127665356738 0.000000000000
0.529777691678 0.274424529806 0.000000000000
0.183662194462 0.372383326750 0.000000000000
0.225026397804 0.355518850277 0.000000000000
0.268579712935 0.038957454750 0.000000000000
0.272848623279 0.089421176778 0.000000000000
0.230538242349 0.050463722028 0.000000000000
0.269246975117 0.368483990256 0.000000000000
0.268004040807 0.314002840533 0.000000000000
0.188654400380 0.043957722046 0.000000000000
0.301878082182 0.110888953420 0.000000000000
0.302545344309 0.291552491728 0.000000000000
0.535443210424 0.094777661897 0.000000000000
0.528255674933 0.372473677684 0.000000000000
0.535913117971 0.309379098915 0.000000000000
0.527852896933 0.035116200554 0.000000000000

CELLS 91 637
6 4 35 23 89 101 102
6 23 35 47 101 139 140
6 22 4 23 137 102 138
6 35 6 47 88 157 139
6 16 23 47 155 140 186
6 14 22 23 128 138 132
6 26 4 22 82 137 152
6 6 31 47 106 156 157
6 31 16 47 185 186 156
6 16 10 23 154 133 155
6 10 14 23 72 132 133
6 14 7 22 73 127 128
6 26 22 28 152 153 103
6 6 32 31 87 105 106
6 62 16 31 205 185 206
6 62 10 16 70 154 205
6 22 7 28 127 165 153
6 5 26 28 83 103 104
6 32 24 31 149 164 105
6 17 62 31 210 206 211
6 7 38 28 90 212 165
6 27 5 28 107 104 161
6 24 17 31 214 211 164
6 32 3 24 86 148 149
6 61 62 17 69 210 158
6 38 27 28 209 161 212
6 29 5 27 84 107 108
6 17 24 51 214 202 159
6 3 21 24 81 150 148
6 61 17 51 158 159 160
6 38 18 27 207 208 209
6 25 29 27 141 108 162
6 24 21 51 150 200 202
6 36 61 51 174 160 175
6 18 25 27 213 162 208
6 38 39 18 91 145 207
6 0 29 25 85 141 142
6 21 20 51 80 199 200
6 20 36 51 190 175 199
6 30 61 36 216 174 217
6 25 18 50 213 147 201
6 18 39 50 145 146 147
6 11 0 25 71 142 144
6 20 19 36 79 189 190
6 30 36 54 217 204 188
6 60 61 30 68 216 134
6 11 25 50 144 201 197
6 39 34 50 181 182 146
6 36 19 54 189 166 204
6 37 30 54 135 188 117
6 60 30 37 134 135 136
6 12 11 50 74 197 198
6 34 12 50 191 198 182
6 39 33 34 218 215 181
6 19 2 54 78 118 166
6 2 37 54 116 117 118
6 15 60 37 143 136 193
6 13 12 34 75 191 192
6 34 33 63 215 187 203
6 39 40 33 92 129 218
6 37 2 55 116 126 167
6 15 37 55 193 167 196
6 59 60 15 67 143 120
6 13 34 63 192 203 163
6 33 46 63 131 115 187
6 33 40 46 129 130 131
6 2 1 55 77 125 126
6 46 15 55 194 196 168
6 59 15 45 120 121 122
6 1 13 63 76 163 114
6 46 1 63 113 114 115
6 40 15 46 151 194 130
6 1 46 55 113 168 125
6 15 41 45 123 124 121
6 58 59 45 66 122 169
6 40 41 15 93 123 151
6 41 42 45 94 170 124
6 58 45 48 169 171 172
6 45 42 48 170 173 171
6 57 58 48 65 172 176
6 42 43 48 95 177 173
6 57 48 52 176 178 179
6 48 43 52 177 180 178
6 56 57 52 64 179 183
6 43 44 52 96 184 180
6 49 56 52 111 183 195
6 44 49 52 110 195 184
6 9 56 49 100 111 112
6 44 8 49 97 109 110
6 53 9 49 99 112 119
6 8 53 49 98 119 109

CELL_TYPES 91
69
69
69
69
69
69
69
69
69
69
69
69
69
69
69
69
69
69
69
69
69
69
69
69
69
69
69
69
69
69
69
69
69
69
69
69
69
69
69
69
69
69
69
69
69
69
69
69
69
69
69
69
69
69
69
69
69
69
69
69
69
69
69
69
69
69
69
69
69
69
69
69
69
69
69
69
69
69
69
69
69
69
69
69
69
69
69
69
69
69
69

POINT_DATA 219

VECTORS Displacement float
-0.000001250224 -0.000000225104 0.000000000000
0.000049026628 0.000764719018 0.000000000000
-0.000005418133 0.000764320177 0.000000000000
0.000000518026 -0.000000511938 0.000000000000
-0.000000000656 -0.000000000637 0.000000000000
-0.000000037322 -0.000000006907 0.000000000000
0.000000015505 -0.000000015361 0.000000000000
-0.000000000021 0.000000000174 0.000000000000
-0.000000000000 0.000000000001 0.000000000000
0.000000000001 0.000000000001 0.000000000000
0.000000000055 0.000000000155 0.000000000000
0.000026917193 0.000089763273 0.000000000000
0.000040456595 0.000292846970 0.000000000000
0.000046969441 0.000526200898 0.000000000000
0.000000000008 0.000000000034 0.000000000000
0.000010061430 0.000102390984 0.000000000000
-0.000008369455 0.000000139957 0.000000000000
-0.000061139475 0.000053172531 0.000000000000
0.000065694231 0.000052310638 0.000000000000
-0.000007255368 0.000525266512 0.000000000000
-0.000011120735 0.000291507125 0.000000000000
-0.000012311324 0.000088371465 0.000000000000
0.000001423190 -0.000001678812 0.000000000000
-0.000001585337 -0.000001665340 0.000000000000
-0.000034923456 0.000032762440 0.000000000000
0.000041929299 0.000034159439 0.000000000000
-0.000000006460 -0.000000001265 0.000000000000
0.000028719543 0.000008057618 0.000000000000
0.000009102029 -0.000000436693 0.000000000000
-0.000000216179 -0.000000039065 0.000000000000
0.000009282453 0.000331363275 0.000000000000
-0.000022818536 0.000005327577 0.000000000000
0.000000089636 -0.000000088613 0.000000000000
0.000009617034 0.000330815098 0.000000000000
0.000102466970 0.000376379401 0.000000000000
0.000000002513 -0.000000002713 0.000000000000
-0.000078598659 0.000378275405 0.000000000000
0.000102405591 0.000357384411 0.000000000000
0.000000000097 0.000000000722 0.000000000000
0.000000000341 0.000000001479 0.000000000000
-0.000000001075 0.000000001596 0.000000000000
-0.000000000476 0.000000001105 0.000000000000
-0.000000000102 0.000000000193 0.000000000000
-0.000000000016 0.000000000033 0.000000000000
-0.000000000002 0.000000000006 0.000000000000
0.000001764510 0.000002359966 0.000000000000
-0.000076244971 0.000345468043 0.000000000000
-0.000006893004 -0.000000743486 0.000000000000
0.000000344265 -0.000000001519 0.000000000000
0.000000009107 -0.000000000258 0.000000000000
0.000101219237 0.000173725748 0.000000000000
-0.000086935878 0.000173505674 0.000000000000
0.000000058617 -0.000000003709 0.000000000000
0.000000000000 0.000000000000 0.000000000000
-0.000009828131 0.000552141098 0.000000000000
0.000015858641 0.000404804369 0.000000000000
0.000000000005 0.000000000006 0.000000000000
0.000000000028 0.000000000034 0.000000000000
0.000000000143 0.000000000198 0.000000000000
0.000000000561 0.000000001113 0.000000000000
0.000000000998 0.000000001643 0.000000000000
-0.000000000233 0.000000001321 0.000000000000
-0.000000000028 0.000000000642 0.000000000000
0.000042156067 0.000548638414 0.000000000000
-0.000000000005 -0.000000000005 0.000000000000
-0.000000000027 -0.000000000028 0.000000000000
-0.000000000158 -0.000000000128 0.000000000000
-0.000000000714 -0.000000002157 0.000000000000
0.000000000094 0.000000000773 0.000000000000
-0.000000000124 -0.000000000702 0.000000000000
0.000000000097 -0.000000000158 0.000000000000
0.000013157368 0.000021208433 0.000000000000
-0.000000000027 -0.000000000025 0.000000000000
0.000000000024 -0.000000000027 0.000000000000
0.000034399788 0.000183685134 0.000000000000
0.000044301491 0.000407744279 0.000000000000
0.000048542337 0.000645185697 0.000000000000
0.000021779567 0.000764472571 0.000000000000
-0.000005940971 0.000644569416 0.000000000000
-0.000009107354 0.000406572327 0.000000000000
-0.000012241131 0.000182142082 0.000000000000
-0.000007246475 0.000019644902 0.000000000000
0.000000000901 0.000000000239 0.000000000000
0.000000005682 0.000000001012 0.000000000000
0.000000032721 0.000000005905 0.000000000000
0.000000188729 0.000000034242 0.000000000000
-0.000000078278 0.000000077476 0.000000000000
-0.000000013633 0.000000013379 0.000000000000
-0.000000002338 0.000000002315 0.000000000000
-0.000000000213 0.000000000426 0.000000000000
-0.000000000156 -0.000000000182 0.000000000000
0.000000000092 -0.000000000758 0.000000000000
-0.000000000099 0.000000000782 0.000000000000
0.000000000697 -0.000000002226 0.000000000000
0.000000000116 -0.000000000127 0.000000000000
0.000000000015 -0.000000000028 0.000000000000
0.000000000002 -0.000000000005 0.000000000000
0.000000000000 -0.000000000001 0.000000000000
0.000000000000 -0.000000000000 0.000000000000
-0.000000000000 -0.000000000000 0.000000000000
-0.000000000001 -0.000000000001 0.000000000000
-0.000001603618 -0.000001139770 0.000000000000
-0.000000818140 -0.000001075349 0.000000000000
0.000005736558 -0.000000995230 0.000000000000
0.000008333445 -0.000000247975 0.000000000000
-0.000014013142 0.000004558526 0.000000000000
-0.000012536035 0.000001975788 0.000000000000
0.000015333584 0.000002828081 0.000000000000
0.000017646473 0.000005983183 0.000000000000
0.000000002222 -0.000000000214 0.000000000000
0.000000011801 -0.000000002046 0.000000000000
0.000000011626 0.000000001574 0.000000000000
0.000000002164 0.000000000111 0.000000000000
-0.000035160613 0.000505021856 0.000000000000
0.000045309200 0.000640586977 0.000000000000
-0.000034528016 0.000471832502 0.000000000000
0.000067346499 0.000512864606 0.000000000000
0.000063443622 0.000482388382 0.000000000000
-0.000007544370 0.000641917552 0.000000000000
0.000000003568 -0.000000000084 0.000000000000
0.000024466747 0.000024789962 0.000000000000
0.000004512514 0.000008599755 0.000000000000
0.000006020134 0.000001708109 0.000000000000
-0.000015369780 0.000024293027 0.000000000000
-0.000001439455 0.000000920363 0.000000000000
-0.000000277799 0.000611971924 0.000000000000
0.000039177846 0.000612116722 0.000000000000
0.000000986939 -0.000000449427 0.000000000000
0.000000269028 -0.000001178978 0.000000000000
-0.000043185266 0.000136198406 0.000000000000
-0.000060459961 0.000140676487 0.000000000000
-0.000034426113 0.000367917938 0.000000000000
-0.000000329891 -0.000001206965 0.000000000000
-0.000001153714 -0.000000419728 0.000000000000
0.000051831528 0.000135416632 0.000000000000
0.000056699434 0.000377970523 0.000000000000
0.000074617767 0.000146195156 0.000000000000
0.000000765898 -0.000001130639 0.000000000000
-0.000000049785 -0.000001448698 0.000000000000
-0.000003154847 -0.000000769072 0.000000000000
-0.000003522163 -0.000001364002 0.000000000000
0.000020562598 0.000012131936 0.000000000000
0.000017231574 0.000013183705 0.000000000000
0.000072497679 0.000120573557 0.000000000000
0.000037176240 0.000056490972 0.000000000000
0.000058749024 0.000077197948 0.000000000000
0.000078568739 0.000141307421 0.000000000000
0.000085121262 0.000098992250 0.000000000000
-0.000013183872 0.000011991191 0.000000000000
-0.000016781982 0.000011229936 0.000000000000
-0.000027240468 0.000054812053 0.000000000000
-0.000053893384 0.000114794922 0.000000000000
0.000001536837 -0.000001206575 0.000000000000
0.000004618005 -0.000001610558 0.000000000000
-0.000001665916 -0.000000334927 0.000000000000
-0.000005082436 -0.000001304389 0.000000000000
-0.000013045166 0.000001027797 0.000000000000
-0.000005021572 -0.000000411755 0.000000000000
-0.000053256334 0.000076486273 0.000000000000
-0.000076596317 0.000099192554 0.000000000000
-0.000068652700 0.000140692246 0.000000000000
0.000015836246 0.000001934405 0.000000000000
0.000033757626 0.000018455352 0.000000000000
0.000062479257 0.000562069916 0.000000000000
-0.000027453995 0.000015214875 0.000000000000
0.000001851732 -0.000000522640 0.000000000000
-0.000026247183 0.000563426993 0.000000000000
0.000069988487 0.000393419052 0.000000000000
-0.000040999250 0.000387339966 0.000000000000
0.000001636479 0.000000671008 0.000000000000
0.000000049356 0.000000670643 0.000000000000
0.000000785582 0.000000184632 0.000000000000
0.000000635502 0.000000103468 0.000000000000
0.000000234829 -0.000000029254 0.000000000000
-0.000058908229 0.000182177770 0.000000000000
-0.000089629436 0.000268385391 0.000000000000
0.000000176109 -0.000000002973 0.000000000000
0.000000131686 -0.000000004809 0.000000000000
0.000000139018 -0.000000007500 0.000000000000
0.000000078642 0.000000007857 0.000000000000
0.000000071700 -0.000000014764 0.000000000000
0.000070788616 0.000182246217 0.000000000000
0.000108817291 0.000267344019 0.000000000000
0.000000024542 -0.000000000898 0.000000000000
0.000000024797 -0.000000001281 0.000000000000
-0.000013451469 0.000001381268 0.000000000000
-0.000008507494 -0.000000275217 0.000000000000
0.000021216259 0.000431462261 0.000000000000
0.000004305558 0.000432735804 0.000000000000
-0.000045751123 0.000447768510 0.000000000000
-0.000052119042 0.000346638012 0.000000000000
0.000079281359 0.000346618735 0.000000000000
0.000076556156 0.000447534062 0.000000000000
0.000065514493 0.000217994196 0.000000000000
-0.000040299265 0.000214516226 0.000000000000
0.000000022980 -0.000000000676 0.000000000000
0.000012703417 0.000222626005 0.000000000000
0.000064521863 0.000137989850 0.000000000000
0.000074789875 0.000226963038 0.000000000000
-0.000053873384 0.000226270858 0.000000000000
-0.000049001414 0.000136908308 0.000000000000
0.000073566613 0.000096540097 0.000000000000
-0.000062261447 0.000095670534 0.000000000000
0.000079300833 0.000466925833 0.000000000000
-0.000051084607 0.000469015405 0.000000000000
-0.000010712013 0.000002741712 0.000000000000
-0.000021901100 0.000006949623 0.000000000000
0.000029771646 0.000011681445 0.000000000000
0.000048309135 0.000025852691 0.000000000000
0.000023486298 0.000007101767 0.000000000000
-0.000028777377 0.000012212766 0.000000000000
-0.000042888194 0.000023235901 0.000000000000
0.000013241934 0.000003092123 0.000000000000
0.000058635737 0.000048266625 0.000000000000
-0.000052606333 0.000048275840 0.000000000000
0.000056676277 0.000384871873 0.000000000000
-0.000030420415 0.000155868623 0.000000000000
-0.000033400547 0.000385897462 0.000000000000
0.000039633536 0.000156897762 0.000000000000

CELL_DATA 91

SCALARS Density float
LOOKUP_TABLE default
0.000000000000
0.000000000000
0.000000000000
0.000000000000
0.000000000000
0.000000000000
0.000000000000
0.000000000000
0.000000000000
0.000000000000
0.000000000000
0.000000000000
0.000000000000
0.000000000000
0.000000000000
0.000000000000
0.000000000000
0.000000000000
0.000000000000
0.000000000000
0.000000000000
0.000000000000
0.000000000000
0.000000000000
0.000000000000
0.000000000000
0.000000000000
0.000000000000
0.000000000000
0.000000000000
0.000000000000
0.000000000000
0.000000000000
0.000000000000
0.000000000000
0.000000000000
0.000000000000
0.000000000000
0.000000000000
0.000000000000
0.000000000000
0.000000000000
0.000000000000
0.000000000000
0.000000000000
0.000000000000
0.000000000000
0.000000000000
0.000000000000
0.000000000000
0.000000000000
0.000000000000
0.000000000000
0.000000000000
0.000000000000
0.000000000000
0.000000000000
0.000000000000
0.000000000000
0.000000000000
0.000000000000
0.000000000000
0.000000000000
0.000000000000
0.000000000000
0.000000000000
0.000000000000
0.000000000000
0.000000000000
0.000000000000
0.000000000000
0.000000000000
0.000000000000
0.000000000000
0.000000000000
0.000000000000
0.000000000000
0.000000000000
0.000000000000
0.000000000000
0.000000000000
0.000000000000
0.000000000000
0.000000000000
0.000000000000
0.000000000000
0.000000000000
0.000000000000
0.000000000000
0.000000000000
0.000000000000

SCALARS Youngs_modulus float
LOOKUP_TABLE default
3.844641275907
2.993941814708
4.909685156778
3.052508361261
2.167910323466
4.844053188542
3.921754545614
2.487368310011
1.878009462511
1.432520480621
2.188576169523
2.391438916615
2.790582193369
2.857458209519
1.264181080323
1.022733951507
1.623011598907
2.784913380725
2.814368257693
1.291579548522
1.085879170109
2.275716698320
2.108509378496
3.715712805646
1.031248834344
1.396240404492
2.875356239927
2.240073127756
4.049249329828
1.360851363425
1.355384304727
2.832057970832
3.260449030637
1.554378792523
2.157097149975
1.067452590247
3.715712810686
3.746540490636
2.991578140162
1.325819497893
2.299306492629
1.436032984326
4.049249333148
3.735596445098
2.110941190877
1.022552675425
3.290646621634
1.637370143319
3.162379468944
2.092593132783
1.315918026133
3.779816724997
3.049730474703
1.399235786432
3.946507086613
3.136751018711
2.023922128156
3.770259790232
2.177681573086
1.054806557392
3.824459030151
3.937610987586
1.360000000000
3.203549381841
2.114599771708
1.362869821716
23.991781607254
3.888492112779
2.650584020312
3.958489335060
3.116941783957
2.071112051031
3.776299460831
2.818675476702
1.341933226019
1.444444444444
1.465009566504
2.608036781981
2.863906010328
1.340277779067
1.466944442934
2.604444451236
2.867777770451
1.340277779616
1.466944442291
2.604444449102
2.867777772753
1.340277778084
1.466944444085
2.604444445115
2.867777777055

SCALARS Poissons_ratio float
LOOKUP_TABLE default
0.000000000000
0.000000000000
0.000000000000
0.000000000000
0.000000000000
0.000000000000
0.000000000000
0.000000000000
0.000000000000
0.000000000000
0.000000000000
0.000000000000
0.000000000000
0.000000000000
0.000000000000
0.000000000000
0.000000000000
0.000000000000
0.000000000000
0.000000000000
0.000000000000
0.000000000000
0.000000000000
0.000000000000
0.000000000000
0.000000000000
0.000000000000
0.000000000000
0.000000000000
0.000000000000
0.000000000000
0.000000000000
0.000000000000
0.000000000000
0.000000000000
0.000000000000
0.000000000000
0.000000000000
0.000000000000
0.000000000000
0.000000000000
0.000000000000
0.000000000000
0.000000000000
0.000000000000
0.000000000000
0.000000000000
0.000000000000
0.000000000000
0.000000000000
0.000000000000
0.000000000000
0.000000000000
0.000000000000
0.000000000000
0.000000000000
0.000000000000
0.000000000000
0.000000000000
0.000000000000
0.000000000000
0.000000000000
0.000000000000
0.000000000000
0.000000000000
0.000000000000
0.000000000000
0.000000000000
0.000000000000
0.000000000000
0.000000000000
0.000000000000
0.000000000000
0.000000000000
0.000000000000
0.000000000000
0.000000000000
0.000000000000
0.000000000000
0.000000000000
0.000000000000
0.000000000000
0.000000000000
0.000000000000
0.000000000000
0.000000000000
0.000000000000
0.000000000000
0.000000000000
0.000000000000
0.000000000000
