# vtk DataFile Version 3.0
My problem

ASCII

DATASET UNSTRUCTURED_GRID

POINTS 1365 float
0.150000000000 0.200000000000 0.000000000000
0.164644660879 0.235355338998 0.000000000000
0.094125089635 0.257934478648 0.000000000000
0.150960735981 0.209754516105 0.000000000000
0.153806023369 0.219134171605 0.000000000000
0.158426519355 0.227778511606 0.000000000000
0.147014768068 0.241000123910 0.000000000000
0.129384875257 0.246644908823 0.000000000000
0.111754982446 0.252289693735 0.000000000000
0.108093817227 0.243450858986 0.000000000000
0.122062544818 0.228967239324 0.000000000000
0.136031272409 0.214483619662 0.000000000000
0.141196037928 0.233156418366 0.000000000000
0.124409358652 0.238350496252 0.000000000000
0.137463146241 0.224144420616 0.000000000000
0.094125089635 0.257934478648 0.000000000000
0.164644660879 0.235355338998 0.000000000000
0.163607239260 0.283089168565 0.000000000000
0.111754982446 0.252289693735 0.000000000000
0.129384875257 0.246644908823 0.000000000000
0.147014768068 0.241000123910 0.000000000000
0.164385305474 0.247288796390 0.000000000000
0.164125950070 0.259222253782 0.000000000000
0.163866594665 0.271155711173 0.000000000000
0.146236701854 0.276800496086 0.000000000000
0.128866164448 0.270511823607 0.000000000000
0.111495627042 0.264223151127 0.000000000000
0.146755412663 0.252933581302 0.000000000000
0.146496057259 0.264867038694 0.000000000000
0.129125519853 0.258578366215 0.000000000000
0.089743248417 0.148877807294 0.000000000000
0.150000000000 0.200000000000 0.000000000000
0.094125089635 0.257934478648 0.000000000000
0.104807436313 0.161658355470 0.000000000000
0.119871624208 0.174438903647 0.000000000000
0.134935812104 0.187219451823 0.000000000000
0.136031272409 0.214483619662 0.000000000000
0.122062544818 0.228967239324 0.000000000000
0.108093817227 0.243450858986 0.000000000000
0.093029629331 0.230670310809 0.000000000000
0.091934169026 0.203406142971 0.000000000000
0.090838708722 0.176141975132 0.000000000000
0.120967084513 0.201703071485 0.000000000000
0.106998356922 0.216186691147 0.000000000000
0.105902896617 0.188922523309 0.000000000000
0.164644660879 0.235355338998 0.000000000000
0.200000000000 0.250000000000 0.000000000000
0.163607239260 0.283089168565 0.000000000000
0.172221488281 0.241573480570 0.000000000000
0.180865828317 0.246193976599 0.000000000000
0.190245483865 0.249039264013 0.000000000000
0.190901809815 0.258272292141 0.000000000000
0.181803619630 0.266544584283 0.000000000000
0.172705429445 0.274816876424 0.000000000000
0.163866594665 0.271155711173 0.000000000000
0.164125950070 0.259222253782 0.000000000000
0.164385305474 0.247288796390 0.000000000000
0.181241008827 0.256840418298 0.000000000000
0.172420362667 0.264197770428 0.000000000000
0.172229011035 0.253107526576 0.000000000000
0.141055056809 0.334766653500 0.000000000000
0.094125089635 0.257934478648 0.000000000000
0.163607239260 0.283089168565 0.000000000000
0.129322565016 0.315558609787 0.000000000000
0.117590073222 0.296350566074 0.000000000000
0.105857581429 0.277142522361 0.000000000000
0.111495627042 0.264223151127 0.000000000000
0.128866164448 0.270511823607 0.000000000000
0.146236701854 0.276800496086 0.000000000000
0.157969193647 0.296008539799 0.000000000000
0.152331148035 0.308927911032 0.000000000000
0.146693102422 0.321847282266 0.000000000000
0.123228118835 0.283431194840 0.000000000000
0.140598656241 0.289719867320 0.000000000000
0.134960610629 0.302639238553 0.000000000000
0.000000000000 0.205000000001 0.000000000000
0.089743248417 0.148877807294 0.000000000000
0.094125089635 0.257934478648 0.000000000000
0.022435812104 0.190969451824 0.000000000000
0.044871624208 0.176938903647 0.000000000000
0.067307436313 0.162908355470 0.000000000000
0.090838708722 0.176141975132 0.000000000000
0.091934169026 0.203406142971 0.000000000000
0.093029629331 0.230670310809 0.000000000000
0.070593817227 0.244700858986 0.000000000000
0.047062544818 0.231467239324 0.000000000000
0.023531272409 0.218233619662 0.000000000000
0.068402896617 0.190172523309 0.000000000000
0.069498356922 0.217436691147 0.000000000000
0.045967084513 0.204203071486 0.000000000000
0.164644661002 0.164644660879 0.000000000000
0.150000000000 0.200000000000 0.000000000000
0.089743248417 0.148877807294 0.000000000000
0.158426519430 0.172221488281 0.000000000000
0.153806023401 0.180865828317 0.000000000000
0.150960735987 0.190245483865 0.000000000000
0.134935812104 0.187219451823 0.000000000000
0.119871624208 0.174438903647 0.000000000000
0.104807436313 0.161658355470 0.000000000000
0.108468601563 0.152819520690 0.000000000000
0.127193954710 0.156761234086 0.000000000000
0.145919307856 0.160702947483 0.000000000000
0.136367685948 0.177558650835 0.000000000000
0.122218438063 0.165055646683 0.000000000000
0.140100577670 0.168546653044 0.000000000000
0.200000000000 0.250000000000 0.000000000000
0.223783463494 0.301037700553 0.000000000000
0.163607239260 0.283089168565 0.000000000000
0.205945865874 0.262759425138 0.000000000000
0.211891731747 0.275518850277 0.000000000000
0.217837597621 0.288278275415 0.000000000000
0.208739407436 0.296550567556 0.000000000000
0.193695351377 0.292063434559 0.000000000000
0.178651295319 0.287576301562 0.000000000000
0.172705429445 0.274816876424 0.000000000000
0.181803619630 0.266544584283 0.000000000000
0.190901809815 0.258272292141 0.000000000000
0.202793541562 0.283791142418 0.000000000000
0.187749485504 0.279304009421 0.000000000000
0.196847675689 0.271031717280 0.000000000000
0.223783463494 0.301037700553 0.000000000000
0.141055056809 0.334766653500 0.000000000000
0.163607239260 0.283089168565 0.000000000000
0.203101361823 0.309469938790 0.000000000000
0.182419260152 0.317902177026 0.000000000000
0.161737158480 0.326334415263 0.000000000000
0.146693102422 0.321847282266 0.000000000000
0.152331148035 0.308927911032 0.000000000000
0.157969193647 0.296008539799 0.000000000000
0.178651295319 0.287576301562 0.000000000000
0.193695351377 0.292063434559 0.000000000000
0.208739407436 0.296550567556 0.000000000000
0.167375204093 0.313415044029 0.000000000000
0.173013249706 0.300495672796 0.000000000000
0.188057305764 0.304982805793 0.000000000000
0.141055056809 0.334766653500 0.000000000000
0.000000000000 0.410000000000 0.000000000000
0.094125089635 0.257934478648 0.000000000000
0.105791292607 0.353574990125 0.000000000000
0.070527528405 0.372383326750 0.000000000000
0.035263764202 0.391191663375 0.000000000000
0.023531272409 0.371983619662 0.000000000000
0.047062544818 0.333967239324 0.000000000000
0.070593817227 0.295950858986 0.000000000000
0.105857581429 0.277142522361 0.000000000000
0.117590073222 0.296350566074 0.000000000000
0.129322565016 0.315558609787 0.000000000000
0.058795036611 0.353175283037 0.000000000000
0.082326309020 0.315158902699 0.000000000000
0.094058800813 0.334366946412 0.000000000000
0.000000000000 0.410000000000 0.000000000000
0.000000000000 0.205000000001 0.000000000000
0.094125089635 0.257934478648 0.000000000000
0.000000000000 0.358750000000 0.000000000000
0.000000000000 0.307500000000 0.000000000000
0.000000000000 0.256250000000 0.000000000000
0.023531272409 0.218233619662 0.000000000000
0.047062544818 0.231467239324 0.000000000000
0.070593817227 0.244700858986 0.000000000000
0.070593817227 0.295950858986 0.000000000000
0.047062544818 0.333967239324 0.000000000000
0.023531272409 0.371983619662 0.000000000000
0.023531272409 0.269483619662 0.000000000000
0.047062544818 0.282717239324 0.000000000000
0.023531272409 0.320733619662 0.000000000000
0.000000000000 0.205000000001 0.000000000000
0.000000000000 0.000000000000 0.000000000000
0.089743248417 0.148877807294 0.000000000000
0.000000000000 0.153750000000 0.000000000000
0.000000000000 0.102500000000 0.000000000000
0.000000000000 0.051250000000 0.000000000000
0.022435812104 0.037219451823 0.000000000000
0.044871624208 0.074438903647 0.000000000000
0.067307436313 0.111658355470 0.000000000000
0.067307436313 0.162908355470 0.000000000000
0.044871624208 0.176938903647 0.000000000000
0.022435812104 0.190969451824 0.000000000000
0.022435812104 0.088469451824 0.000000000000
0.044871624208 0.125688903647 0.000000000000
0.022435812104 0.139719451824 0.000000000000
0.164644661002 0.164644660879 0.000000000000
0.089743248417 0.148877807294 0.000000000000
0.151039468757 0.087915444092 0.000000000000
0.145919307856 0.160702947483 0.000000000000
0.127193954710 0.156761234086 0.000000000000
0.108468601563 0.152819520690 0.000000000000
0.105067303502 0.133637216493 0.000000000000
0.120391358587 0.118396625693 0.000000000000
0.135715413672 0.103156034892 0.000000000000
0.154440766818 0.107097748289 0.000000000000
0.157842064879 0.126280052485 0.000000000000
0.161243362941 0.145462356682 0.000000000000
0.123792656648 0.137578929890 0.000000000000
0.139116711733 0.122338339089 0.000000000000
0.142518009794 0.141520643286 0.000000000000
0.200000000000 0.250000000000 0.000000000000
0.231622776514 0.238729833533 0.000000000000
0.223783463494 0.301037700553 0.000000000000
0.208517251206 0.249269223983 0.000000000000
0.216785534301 0.247098257274 0.000000000000
0.224563158735 0.243550559502 0.000000000000
0.229662948259 0.254306800288 0.000000000000
0.227703120004 0.269883767043 0.000000000000
0.225743291749 0.285460733798 0.000000000000
0.217837597621 0.288278275415 0.000000000000
0.211891731747 0.275518850277 0.000000000000
0.205945865874 0.262759425138 0.000000000000
0.222423828817 0.258809269208 0.000000000000
0.220161834232 0.273723796148 0.000000000000
0.214400875052 0.261668601448 0.000000000000
0.226269332114 0.410000000000 0.000000000000
0.141055056809 0.334766653500 0.000000000000
0.223783463494 0.301037700553 0.000000000000
0.204965763288 0.391191663375 0.000000000000
0.183662194462 0.372383326750 0.000000000000
0.162358625636 0.353574990125 0.000000000000
0.161737158480 0.326334415263 0.000000000000
0.182419260152 0.317902177026 0.000000000000
0.203101361823 0.309469938790 0.000000000000
0.224404930649 0.328278275415 0.000000000000
[...]
POINT_DATA 1365

TENSORS Scaled_strain_rate float
1.450432639728 -2.490177116266 3.436098441132 0.000000000000 0.000000000000 0.000000000000 0.000000000000 0.000000000000 0.000000000000
28.387291727263 -26.223783496897 3.882016387367 0.000000000000 0.000000000000 0.000000000000 0.000000000000 0.000000000000 0.000000000000
0.231897954929 1.806730774097 -3.153631077058 0.000000000000 0.000000000000 0.000000000000 0.000000000000 0.000000000000 0.000000000000
6.391475466346 -6.379156534276 13.286104385920 0.000000000000 0.000000000000 0.000000000000 0.000000000000 0.000000000000 0.000000000000
14.361674415407 -14.529912308327 15.895128316796 0.000000000000 0.000000000000 0.000000000000 0.000000000000 0.000000000000 0.000000000000
22.285742433146 -21.988544124526 12.850165870087 0.000000000000 0.000000000000 0.000000000000 0.000000000000 0.000000000000 0.000000000000
1.631997460829 -2.100931575725 -6.864088094175 0.000000000000 0.000000000000 0.000000000000 0.000000000000 0.000000000000 0.000000000000
0.648697005711 0.033420426038 -6.561301117250 0.000000000000 0.000000000000 0.000000000000 0.000000000000 0.000000000000 0.000000000000
0.968048036251 -1.256111467474 -4.139091488366 0.000000000000 0.000000000000 0.000000000000 0.000000000000 0.000000000000 0.000000000000
1.427447356934 -0.014281072080 -3.663153729737 0.000000000000 0.000000000000 0.000000000000 0.000000000000 0.000000000000 0.000000000000
3.031723668979 -2.775020774768 -5.340427535846 0.000000000000 0.000000000000 0.000000000000 0.000000000000 0.000000000000 0.000000000000
7.565035488670 -7.947131238739 -4.649122773869 0.000000000000 0.000000000000 0.000000000000 0.000000000000 0.000000000000 0.000000000000
3.636855802142 -3.609538627270 -7.671854685056 0.000000000000 0.000000000000 0.000000000000 0.000000000000 0.000000000000 0.000000000000
1.418333299593 -1.568077136541 -5.954271136647 0.000000000000 0.000000000000 0.000000000000 0.000000000000 0.000000000000 0.000000000000
5.819294222415 -5.730676759806 -7.069513412546 0.000000000000 0.000000000000 0.000000000000 0.000000000000 0.000000000000 0.000000000000
0.004383977930 0.607761498481 -1.512635632905 0.000000000000 0.000000000000 0.000000000000 0.000000000000 0.000000000000 0.000000000000
27.414467766846 -26.619602775616 2.899276368001 0.000000000000 0.000000000000 0.000000000000 0.000000000000 0.000000000000 0.000000000000
-2.697119917060 3.149098251046 0.918365369935 0.000000000000 0.000000000000 0.000000000000 0.000000000000 0.000000000000 0.000000000000
0.837858441457 -1.005719924854 -3.511740055548 0.000000000000 0.000000000000 0.000000000000 0.000000000000 0.000000000000 0.000000000000
-0.202693592161 -0.086285261559 -6.183413726877 0.000000000000 0.000000000000 0.000000000000 0.000000000000 0.000000000000 0.000000000000
2.422421729379 -2.198585476816 -6.861355370701 0.000000000000 0.000000000000 0.000000000000 0.000000000000 0.000000000000 0.000000000000
9.126300658627 -9.844727314950 -4.423444056661 0.000000000000 0.000000000000 0.000000000000 0.000000000000 0.000000000000 0.000000000000
0.794761324018 -0.853578346454 -2.392187415592 0.000000000000 0.000000000000 0.000000000000 0.000000000000 0.000000000000 0.000000000000
-2.644092517863 2.646838137058 -0.380043707412 0.000000000000 0.000000000000 0.000000000000 0.000000000000 0.000000000000 0.000000000000
-2.389643432549 2.663772540558 -1.870702164975 0.000000000000 0.000000000000 0.000000000000 0.000000000000 0.000000000000 0.000000000000
-1.144746934962 1.530128205885 -2.333079419194 0.000000000000 0.000000000000 0.000000000000 0.000000000000 0.000000000000 0.000000000000
-0.708527153787 1.227774670337 -1.896147181786 0.000000000000 0.000000000000 0.000000000000 0.000000000000 0.000000000000 0.000000000000
-1.582224796396 1.694225517300 -5.420856095656 0.000000000000 0.000000000000 0.000000000000 0.000000000000 0.000000000000 0.000000000000
-2.893020213479 2.855716181089 -3.601660552964 0.000000000000 0.000000000000 0.000000000000 0.000000000000 0.000000000000 0.000000000000
-0.847156912941 0.788900005322 -4.553008057619 0.000000000000 0.000000000000 0.000000000000 0.000000000000 0.000000000000 0.000000000000
0.224029231682 0.046396239099 2.131327503912 0.000000000000 0.000000000000 0.000000000000 0.000000000000 0.000000000000 0.000000000000
3.996665950954 -2.151589420235 0.719395227642 0.000000000000 0.000000000000 0.000000000000 0.000000000000 0.000000000000 0.000000000000
-0.357957639452 0.548592844533 -2.329863588545 0.000000000000 0.000000000000 0.000000000000 0.000000000000 0.000000000000 0.000000000000
0.946818267622 -1.498085461389 3.025730165008 0.000000000000 0.000000000000 0.000000000000 0.000000000000 0.000000000000 0.000000000000
3.576663228514 -3.364400455377 4.862332042588 0.000000000000 0.000000000000 0.000000000000 0.000000000000 0.000000000000 0.000000000000
7.830885256400 -7.771995061996 3.764224321792 0.000000000000 0.000000000000 0.000000000000 0.000000000000 0.000000000000 0.000000000000
7.646500593336 -7.443771222928 -4.451178872186 0.000000000000 0.000000000000 0.000000000000 0.000000000000 0.000000000000 0.000000000000
3.196813443142 -3.089154416695 -5.803769125576 0.000000000000 0.000000000000 0.000000000000 0.000000000000 0.000000000000 0.000000000000
0.601860636784 -1.135296373509 -3.485020178889 0.000000000000 0.000000000000 0.000000000000 0.000000000000 0.000000000000 0.000000000000
1.728884690124 -1.350208825692 -1.719921247986 0.000000000000 0.000000000000 0.000000000000 0.000000000000 0.000000000000 0.000000000000
2.375851548625 -2.328742359901 -0.318137618243 0.000000000000 0.000000000000 0.000000000000 0.000000000000 0.000000000000 0.000000000000
1.988498324919 -1.499541454424 1.200467450564 0.000000000000 0.000000000000 0.000000000000 0.000000000000 0.000000000000 0.000000000000
5.992514227941 -5.999088921786 -0.463113648615 0.000000000000 0.000000000000 0.000000000000 0.000000000000 0.000000000000 0.000000000000
3.411715101993 -3.381691036717 -2.329270889245 0.000000000000 0.000000000000 0.000000000000 0.000000000000 0.000000000000 0.000000000000
3.589652249685 -3.572479847249 1.507563359891 0.000000000000 0.000000000000 0.000000000000 0.000000000000 0.000000000000 0.000000000000
26.349859292466 -30.418834428738 -0.078840148136 0.000000000000 0.000000000000 0.000000000000 0.000000000000 0.000000000000 0.000000000000
-1.077971214589 0.124411563126 -22.451385773888 0.000000000000 0.000000000000 0.000000000000 0.000000000000 0.000000000000 0.000000000000
-2.884321204607 2.823805864345 0.844278092076 0.000000000000 0.000000000000 0.000000000000 0.000000000000 0.000000000000 0.000000000000
25.786720925698 -25.900727210168 -14.456232439644 0.000000000000 0.000000000000 0.000000000000 0.000000000000 0.000000000000 0.000000000000
18.597562366556 -18.255050501646 -24.583507064627 0.000000000000 0.000000000000 0.000000000000 0.000000000000 0.000000000000 0.000000000000
8.476112691796 -8.831426924576 -27.246740824571 0.000000000000 0.000000000000 0.000000000000 0.000000000000 0.000000000000 0.000000000000
7.701090576552 -7.011678392325 -12.098919485766 0.000000000000 0.000000000000 0.000000000000 0.000000000000 0.000000000000 0.000000000000
2.966144484457 -3.452472064096 -2.544188150471 0.000000000000 0.000000000000 0.000000000000 0.000000000000 0.000000000000 0.000000000000
-2.208711692820 1.687762945800 0.652757565266 0.000000000000 0.000000000000 0.000000000000 0.000000000000 0.000000000000 0.000000000000
-2.413230556101 2.088829222045 -0.616417490842 0.000000000000 0.000000000000 0.000000000000 0.000000000000 0.000000000000 0.000000000000
1.092049200979 -1.133773188121 -2.764596803420 0.000000000000 0.000000000000 0.000000000000 0.000000000000 0.000000000000 0.000000000000
9.662983899846 -8.306507727080 -5.487330290190 0.000000000000 0.000000000000 0.000000000000 0.000000000000 0.000000000000 0.000000000000
8.114997542945 -8.176106410041 -9.088299559227 0.000000000000 0.000000000000 0.000000000000 0.000000000000 0.000000000000 0.000000000000
1.240262403193 -1.260911018028 -1.843623991201 0.000000000000 0.000000000000 0.000000000000 0.000000000000 0.000000000000 0.000000000000
8.320175991989 -8.455749702162 -6.708679555724 0.000000000000 0.000000000000 0.000000000000 0.000000000000 0.000000000000 0.000000000000
-1.798606966279 1.685072836804 1.652613620163 0.000000000000 0.000000000000 0.000000000000 0.000000000000 0.000000000000 0.000000000000
0.245245983823 -1.764975178485 -1.220644531244 0.000000000000 0.000000000000 0.000000000000 0.000000000000 0.000000000000 0.000000000000
-3.221505899178 2.810502332294 0.677761825665 0.000000000000 0.000000000000 0.000000000000 0.000000000000 0.000000000000 0.000000000000
-1.645259531353 1.669546373744 0.700761809932 0.000000000000 0.000000000000 0.000000000000 0.000000000000 0.000000000000 0.000000000000
-1.458444106760 1.499037503852 -0.377733880513 0.000000000000 0.000000000000 0.000000000000 0.000000000000 0.000000000000 0.000000000000
-0.615210243209 0.485796511857 -1.902029871097 0.000000000000 0.000000000000 0.000000000000 0.000000000000 0.000000000000 0.000000000000
-0.811879800229 0.509714421902 -2.186669402711 0.000000000000 0.000000000000 0.000000000000 0.000000000000 0.000000000000 0.000000000000
-1.557104884527 1.262683942392 -2.453983378844 0.000000000000 0.000000000000 0.000000000000 0.000000000000 0.000000000000 0.000000000000
-2.605522298029 2.597303007776 -1.818984426761 0.000000000000 0.000000000000 0.000000000000 0.000000000000 0.000000000000 0.000000000000
-2.576580250979 2.477334663520 0.753769392780 0.000000000000 0.000000000000 0.000000000000 0.000000000000 0.000000000000 0.000000000000
-2.138124545289 2.212943105741 1.049838322357 0.000000000000 0.000000000000 0.000000000000 0.000000000000 0.000000000000 0.000000000000
-1.964542513534 2.007878679334 1.310392526731 0.000000000000 0.000000000000 0.000000000000 0.000000000000 0.000000000000 0.000000000000
-1.463894641359 1.537414652656 -1.515414879361 0.000000000000 0.000000000000 0.000000000000 0.000000000000 0.000000000000 0.000000000000
-2.280264561516 2.292641776673 -0.723243563756 0.000000000000 0.000000000000 0.000000000000 0.000000000000 0.000000000000 0.000000000000
-1.959455069203 1.909534932269 0.207548252214 0.000000000000 0.000000000000 0.000000000000 0.000000000000 0.000000000000 0.000000000000
-0.445179273081 0.030713491307 -0.069489852579 0.000000000000 0.000000000000 0.000000000000 0.000000000000 0.000000000000 0.000000000000
0.414904702094 -0.769305314047 2.059984763109 0.000000000000 0.000000000000 0.000000000000 0.000000000000 0.000000000000 0.000000000000
0.044882190821 -0.345012751437 -2.332569738797 0.000000000000 0.000000000000 0.000000000000 0.000000000000 0.000000000000 0.000000000000
0.403722854702 -0.387025153135 -0.091246171375 0.000000000000 0.000000000000 0.000000000000 0.000000000000 0.000000000000 0.000000000000
0.691387901367 -0.748727083335 0.002498058345 0.000000000000 0.000000000000 0.000000000000 0.000000000000 0.000000000000 0.000000000000
0.942369236588 -0.909217013964 0.479580290811 0.000000000000 0.000000000000 0.000000000000 0.000000000000 0.000000000000 0.000000000000
1.867272469426 -2.006725832739 1.329310603424 0.000000000000 0.000000000000 0.000000000000 0.000000000000 0.000000000000 0.000000000000
2.498634886712 -2.624794083468 -0.300297393171 0.000000000000 0.000000000000 0.000000000000 0.000000000000 0.000000000000 0.000000000000
1.657669925951 -1.791724877765 -1.868645676708 0.000000000000 0.000000000000 0.000000000000 0.000000000000 0.000000000000 0.000000000000
0.787731408750 -0.745819347644 -0.780953658778 0.000000000000 0.000000000000 0.000000000000 0.000000000000 0.000000000000 0.000000000000
0.639718011244 -0.702724040124 -0.239682656895 0.000000000000 0.000000000000 0.000000000000 0.000000000000 0.000000000000 0.000000000000
0.404847071253 -0.403868437686 -0.083299739643 0.000000000000 0.000000000000 0.000000000000 0.000000000000 0.000000000000 0.000000000000
1.501885634168 -1.489384911305 0.225909617904 0.000000000000 0.000000000000 0.000000000000 0.000000000000 0.000000000000 0.000000000000
1.443358989396 -1.432630096456 -0.610053683846 0.000000000000 0.000000000000 0.000000000000 0.000000000000 0.000000000000 0.000000000000
0.839183671327 -0.854554397754 -0.118082750152 0.000000000000 0.000000000000 0.000000000000 0.000000000000 0.000000000000 0.000000000000
28.874245494547 -25.457500236837 -2.569979407539 0.000000000000 0.000000000000 0.000000000000 0.000000000000 0.000000000000 0.000000000000
0.572722583446 -3.323250403227 -1.886804763548 0.000000000000 0.000000000000 0.000000000000 0.000000000000 0.000000000000 0.000000000000
1.164286071830 0.735261001539 2.914823710046 0.000000000000 0.000000000000 0.000000000000 0.000000000000 0.000000000000 0.000000000000
21.908091135729 -21.197872064652 -12.371110352117 0.000000000000 0.000000000000 0.000000000000 0.000000000000 0.000000000000 0.000000000000
13.961411210679 -14.192932711497 -15.418518791547 0.000000000000 0.000000000000 0.000000000000 0.000000000000 0.000000000000 0.000000000000
6.082907638906 -6.246392011276 -12.502506333429 0.000000000000 0.000000000000 0.000000000000 0.000000000000 0.000000000000 0.000000000000
7.984231867495 -8.102399464784 4.315189402087 0.000000000000 0.000000000000 0.000000000000 0.000000000000 0.000000000000 0.000000000000
3.289667513792 -3.110850001166 4.232387619516 0.000000000000 0.000000000000 0.000000000000 0.000000000000 0.000000000000 0.000000000000
1.980635725156 -0.049555317365 3.267180390759 0.000000000000 0.000000000000 0.000000000000 0.000000000000 0.000000000000 0.000000000000
0.951646919787 -1.563647007668 3.461880880727 0.000000000000 0.000000000000 0.000000000000 0.000000000000 0.000000000000 0.000000000000
1.578045724013 -0.453307420169 6.344109635351 0.000000000000 0.000000000000 0.000000000000 0.000000000000 0.000000000000 0.000000000000
1.643044669304 -2.808672978706 6.848430762488 0.000000000000 0.000000000000 0.000000000000 0.000000000000 0.000000000000 0.000000000000
6.054893864910 -5.946460362331 6.782676051503 0.000000000000 0.000000000000 0.000000000000 0.000000000000 0.000000000000 0.000000000000
2.041922614107 -2.218337301599 5.655269268651 0.000000000000 0.000000000000 0.000000000000 0.000000000000 0.000000000000 0.000000000000
3.740179868630 -3.717719131796 7.399186593208 0.000000000000 0.000000000000 0.000000000000 0.000000000000 0.000000000000 0.000000000000
-0.197258288354 0.231780396649 -21.969943215772 0.000000000000 0.000000000000 0.000000000000 0.000000000000 0.000000000000 0.000000000000
-0.035867281540 -0.265752337129 1.224409328270 0.000000000000 0.000000000000 0.000000000000 0.000000000000 0.000000000000 0.000000000000
-2.732743918994 2.649725048525 -0.012388169172 0.000000000000 0.000000000000 0.000000000000 0.000000000000 0.000000000000 0.000000000000
4.455286962426 -4.133159856986 -11.082006352541 0.000000000000 0.000000000000 0.000000000000 0.000000000000 0.000000000000 0.000000000000
3.261989691990 -3.377427632818 -5.327035502095 0.000000000000 0.000000000000 0.000000000000 0.000000000000 0.000000000000 0.000000000000
1.559287106784 -1.656820906148 -0.916047275471 0.000000000000 0.000000000000 0.000000000000 0.000000000000 0.000000000000 0.000000000000
-0.248252751973 -0.000594720128 1.409531592989 0.000000000000 0.000000000000 0.000000000000 0.000000000000 0.000000000000 0.000000000000
-0.985753090647 0.760781894764 1.788262706517 0.000000000000 0.000000000000 0.000000000000 0.000000000000 0.000000000000 0.000000000000
-1.952570299763 1.938264915981 1.498705216689 0.000000000000 0.000000000000 0.000000000000 0.000000000000 0.000000000000 0.000000000000
-1.907439882224 1.887965144280 0.586827101203 0.000000000000 0.000000000000 0.000000000000 0.000000000000 0.000000000000 0.000000000000
3.310447769297 -3.250497839724 -3.247822345834 0.000000000000 0.000000000000 0.000000000000 0.000000000000 0.000000000000 0.000000000000
7.100131809230 -7.556612593768 -12.309264778899 0.000000000000 0.000000000000 0.000000000000 0.000000000000 0.000000000000 0.000000000000
1.312515364614 -1.265276183353 -0.029560148519 0.000000000000 0.000000000000 0.000000000000 0.000000000000 0.000000000000 0.000000000000
0.054052400070 -0.025810387738 0.805237061035 0.000000000000 0.000000000000 0.000000000000 0.000000000000 0.000000000000 0.000000000000
3.854855399770 -3.851881320872 -4.603345958968 0.000000000000 0.000000000000 0.000000000000 0.000000000000 0.000000000000 0.000000000000
0.350984331152 -0.348935198018 1.382160328914 0.000000000000 0.000000000000 0.000000000000 0.000000000000 0.000000000000 0.000000000000
-1.417254750561 1.734376786774 1.446324275863 0.000000000000 0.000000000000 0.000000000000 0.000000000000 0.000000000000 0.000000000000
-3.154760270692 2.997877112487 0.150000658466 0.000000000000 0.000000000000 0.000000000000 0.000000000000 0.000000000000 0.000000000000
-1.213824259765 1.202978929857 2.821294778748 0.000000000000 0.000000000000 0.000000000000 0.000000000000 0.000000000000 0.000000000000
-1.960025099912 2.015191615321 2.482492349591 0.000000000000 0.000000000000 0.000000000000 0.000000000000 0.000000000000 0.000000000000
-2.005303776045 1.912246889872 1.972260651071 0.000000000000 0.000000000000 0.000000000000 0.000000000000 0.000000000000 0.000000000000
-1.926634354650 1.941212722391 1.364365582408 0.000000000000 0.000000000000 0.000000000000 0.000000000000 0.000000000000 0.000000000000
-2.225324330398 2.133207612296 1.087812587962 0.000000000000 0.000000000000 0.000000000000 0.000000000000 0.000000000000 0.000000000000
-2.694455475860 2.718454151550 0.660629636917 0.000000000000 0.000000000000 0.000000000000 0.000000000000 0.000000000000 0.000000000000
-2.257869853889 2.341633308753 1.633336440200 0.000000000000 0.000000000000 0.000000000000 0.000000000000 0.000000000000 0.000000000000
-0.981726486607 1.181297880959 2.051087627107 0.000000000000 0.000000000000 0.000000000000 0.000000000000 0.000000000000 0.000000000000
-0.013752599412 0.259796791200 1.820407279534 0.000000000000 0.000000000000 0.000000000000 0.000000000000 0.000000000000 0.000000000000
-2.249011629007 2.266177251747 1.826023702983 0.000000000000 0.000000000000 0.000000000000 0.000000000000 0.000000000000 0.000000000000
-2.499355450551 2.481735591352 1.919740175971 0.000000000000 0.000000000000 0.000000000000 0.000000000000 0.000000000000 0.000000000000
-1.907647315440 1.867398208488 2.694442499074 0.000000000000 0.000000000000 0.000000000000 0.000000000000 0.000000000000 0.000000000000
-1.628080231709 1.599688089090 1.602439149047 0.000000000000 0.000000000000 0.000000000000 0.000000000000 0.000000000000 0.000000000000
0.139306674374 -0.096910268855 2.942968623985 0.000000000000 0.000000000000 0.000000000000 0.000000000000 0.000000000000 0.000000000000
0.600470124244 -0.905942195117 -1.619468147406 0.000000000000 0.000000000000 0.000000000000 0.000000000000 0.000000000000 0.000000000000
-1.172100339061 1.099525358937 1.922655773832 0.000000000000 0.000000000000 0.000000000000 0.000000000000 0.000000000000 0.000000000000
-0.710363305378 0.649466957798 2.428751450380 0.000000000000 0.000000000000 0.000000000000 0.000000000000 0.000000000000 0.000000000000
-0.209275053665 0.212771743457 2.730980064989 0.000000000000 0.000000000000 0.000000000000 0.000000000000 0.000000000000 0.000000000000
-0.267971979912 0.221570993871 2.208804752544 0.000000000000 0.000000000000 0.000000000000 0.000000000000 0.000000000000 0.000000000000
-0.385043291716 0.440178967961 1.303988986762 0.000000000000 0.000000000000 0.000000000000 0.000000000000 0.000000000000 0.000000000000
-0.436438507955 0.427803904316 0.167024042034 0.000000000000 0.000000000000 0.000000000000 0.000000000000 0.000000000000 0.000000000000
-0.563822141094 0.688521270977 -1.508955080405 0.000000000000 0.000000000000 0.000000000000 0.000000000000 0.000000000000 0.000000000000