# vtk DataFile Version 3.0
My problem

ASCII

DATASET UNSTRUCTURED_GRID

POINTS 219 float
0.248989794856 0.190000000000 0.000000000000
0.600000000000 0.190000000000 0.000000000000
0.600000000000 0.210000000000 0.000000000000
0.248989794856 0.210000000000 0.000000000000
0.150000000000 0.200000000000 0.000000000000
0.200000000000 0.150000000000 0.000000000000
0.200000000000 0.250000000000 0.000000000000
0.000000000000 0.000000000000 0.000000000000
2.500000000000 0.000000000000 0.000000000000
2.500000000000 0.410000000000 0.000000000000
0.000000000000 0.410000000000 0.000000000000
0.336742346142 0.190000000000 0.000000000000
0.424494897427 0.190000000000 0.000000000000
0.512247448714 0.190000000000 0.000000000000
0.000000000000 0.205000000001 0.000000000000
0.811444632134 0.200000000000 0.000000000000
0.141055056809 0.334766653500 0.000000000000
0.312224618120 0.326967980512 0.000000000000
0.310890093866 0.077914909499 0.000000000000
0.512247448714 0.210000000000 0.000000000000
0.424494897428 0.210000000000 0.000000000000
0.336742346142 0.210000000000 0.000000000000
0.089743248417 0.148877807294 0.000000000000
0.094125089635 0.257934478648 0.000000000000
0.292866070499 0.256137002944 0.000000000000
0.292866070499 0.143862997341 0.000000000000
0.164644661002 0.164644660879 0.000000000000
0.234807152693 0.100927444057 0.000000000000
0.151039468757 0.087915444092 0.000000000000
0.231622776688 0.161270166609 0.000000000000
0.583493562250 0.334947355369 0.000000000000
0.223783463494 0.301037700553 0.000000000000
0.231622776514 0.238729833533 0.000000000000
0.582688006490 0.070232401107 0.000000000000
0.488198414358 0.119322922687 0.000000000000
0.164644660879 0.235355338998 0.000000000000
0.488332673692 0.283810842461 0.000000000000
0.672039863667 0.286432887924 0.000000000000
0.226269332004 0.000000000000 0.000000000000
0.473017787376 0.000000000000 0.000000000000
0.742098886350 0.000000000000 0.000000000000
1.035533905597 0.000000000000 0.000000000000
1.355527063570 0.000000000000 0.000000000000
1.704482076286 0.000000000000 0.000000000000
2.085020215518 0.000000000000 0.000000000000
1.191311797019 0.204574829794 0.000000000000
0.671092828006 0.110483630153 0.000000000000
0.163607239260 0.283089168565 0.000000000000
1.530004569928 0.204999999668 0.000000000000
2.260798596372 0.204999999921 0.000000000000
0.387701601611 0.120183471588 0.000000000000
0.387946398916 0.282819304320 0.000000000000
1.894751145902 0.204999999527 0.000000000000
2.500000000000 0.204999999999 0.000000000000
0.571222709665 0.265038217151 0.000000000000
0.670915464761 0.199383303615 0.000000000000
2.085020216813 0.410000000000 0.000000000000
1.704482077305 0.410000000000 0.000000000000
1.355527064349 0.410000000000 0.000000000000
1.035533906169 0.410000000000 0.000000000000
0.742098886744 0.410000000000 0.000000000000
0.473017787617 0.410000000000 0.000000000000
0.226269332114 0.410000000000 0.000000000000
0.570845339514 0.136007790789 0.000000000000
1.894751147059 0.410000000000 0.000000000000
1.530004570827 0.410000000000 0.000000000000
1.195530485260 0.410000000000 0.000000000000
0.888816396456 0.410000000000 0.000000000000
0.607558337180 0.410000000000 0.000000000000
0.349643559866 0.410000000000 0.000000000000
0.113134666057 0.410000000000 0.000000000000
0.292866070499 0.190000000000 0.000000000000
0.000000000000 0.307500000000 0.000000000000
0.000000000000 0.102500000000 0.000000000000
0.380618621784 0.190000000000 0.000000000000
0.468371173071 0.190000000000 0.000000000000
0.556123724357 0.190000000000 0.000000000000
0.600000000000 0.200000000000 0.000000000000
0.556123724357 0.210000000000 0.000000000000
0.468371173071 0.210000000000 0.000000000000
0.380618621785 0.210000000000 0.000000000000
0.292866070499 0.210000000000 0.000000000000
0.153806023399 0.180865828321 0.000000000000
0.180865828451 0.153806023346 0.000000000000
0.216785534457 0.152901742782 0.000000000000
0.242789572381 0.174133950912 0.000000000000
0.242789572300 0.225866049222 0.000000000000
0.216785534276 0.247098257283 0.000000000000
0.180865828321 0.246193976601 0.000000000000
0.153806023346 0.219134171549 0.000000000000
0.113134666002 0.000000000000 0.000000000000
0.349643559690 0.000000000000 0.000000000000
0.607558336863 0.000000000000 0.000000000000
0.888816395973 0.000000000000 0.000000000000
1.195530484583 0.000000000000 0.000000000000
1.530004569928 0.000000000000 0.000000000000
1.894751145902 0.000000000000 0.000000000000
2.292510107759 0.000000000000 0.000000000000
2.500000000000 0.102500000000 0.000000000000
2.500000000000 0.307500000000 0.000000000000
2.292510108406 0.410000000000 0.000000000000
0.129384875257 0.246644908823 0.000000000000
0.122062544818 0.228967239324 0.000000000000
0.157842064879 0.126280052485 0.000000000000
0.175519734378 0.118957722046 0.000000000000
0.227703120004 0.269883767043 0.000000000000
0.211891731747 0.275518850277 0.000000000000
0.217403576346 0.125463722028 0.000000000000
0.233214964691 0.131098805333 0.000000000000
2.380399298186 0.102499999961 0.000000000000
2.172909405945 0.102499999961 0.000000000000
2.172909406593 0.307499999961 0.000000000000
2.380399298186 0.307499999961 0.000000000000
0.635546414003 0.150241815076 0.000000000000
0.585422669757 0.163003895395 0.000000000000
0.620969083760 0.123245710471 0.000000000000
0.636019931834 0.248216443962 0.000000000000
0.621631286666 0.275735552538 0.000000000000
0.585611354832 0.237519108575 0.000000000000
2.380399298186 0.204999999960 0.000000000000
0.923489269152 0.305000000000 0.000000000000
1.001378214577 0.202287414897 0.000000000000
1.113422851594 0.307287414897 0.000000000000
0.923489268865 0.100000000000 0.000000000000
1.113422851308 0.102287414897 0.000000000000
0.635457732381 0.194691651808 0.000000000000
0.635457732381 0.204691651808 0.000000000000
0.044871624208 0.074438903647 0.000000000000
0.044871624208 0.176938903647 0.000000000000
0.662393446420 0.035116200554 0.000000000000
0.706595857178 0.055241815076 0.000000000000
0.626890417248 0.090358015630 0.000000000000
0.047062544818 0.231467239324 0.000000000000
0.047062544818 0.333967239324 0.000000000000
0.662796224497 0.372473677684 0.000000000000
0.627766712958 0.310690121646 0.000000000000
0.707069375205 0.348216443962 0.000000000000
0.119871624208 0.174438903647 0.000000000000
0.091934169026 0.203406142971 0.000000000000
0.164125950070 0.259222253782 0.000000000000
0.128866164448 0.270511823607 0.000000000000
0.262244423593 0.152566581975 0.000000000000
0.270927932677 0.166931498671 0.000000000000
0.776771759439 0.305000000000 0.000000000000
0.314804208320 0.166931498671 0.000000000000
0.391953940621 0.038957454750 0.000000000000
0.430359694494 0.060091735794 0.000000000000
0.349295847739 0.099049190544 0.000000000000
0.270927932677 0.233068501472 0.000000000000
0.262244423507 0.247433418239 0.000000000000
0.314804208320 0.233068501472 0.000000000000
0.776771759242 0.100000000000 0.000000000000
0.127193954710 0.156761234086 0.000000000000
0.120391358587 0.118396625693 0.000000000000
0.070527528405 0.372383326750 0.000000000000
0.117590073222 0.296350566074 0.000000000000
0.193695351377 0.292063434559 0.000000000000
0.181803619630 0.266544584283 0.000000000000
0.392621202868 0.368483990256 0.000000000000
0.350085508518 0.304893642416 0.000000000000
0.430482093266 0.346409652160 0.000000000000
0.192923310725 0.094421444074 0.000000000000
0.263836611596 0.122395220699 0.000000000000
0.541546394114 0.163003895395 0.000000000000
0.258324766996 0.278587351749 0.000000000000
0.075519734378 0.043957722046 0.000000000000
0.541735079189 0.237519108575 0.000000000000
0.671477664214 0.242908095770 0.000000000000
0.671004146384 0.154933466884 0.000000000000
1.273419430684 0.307287414897 0.000000000000
1.273419430295 0.102287414897 0.000000000000
1.360658183474 0.204787414731 0.000000000000
1.442765817139 0.307499999834 0.000000000000
1.442765816749 0.102499999834 0.000000000000
0.480675230654 0.346905421231 0.000000000000
0.438139536304 0.283315073391 0.000000000000
1.617243323616 0.307499999834 0.000000000000
1.617243323107 0.102499999834 0.000000000000
1.712377857915 0.204999999598 0.000000000000
1.799616611603 0.307499999764 0.000000000000
1.799616611094 0.102499999764 0.000000000000
0.480608100867 0.059661461344 0.000000000000
0.437950007985 0.119753197138 0.000000000000
1.989885681358 0.307499999764 0.000000000000
1.989885680710 0.102499999764 0.000000000000
0.182419260152 0.317902177026 0.000000000000
0.152331148035 0.308927911032 0.000000000000
0.576766673002 0.103120095948 0.000000000000
0.577358135957 0.299992786260 0.000000000000
0.500290061203 0.246905421231 0.000000000000
0.456413785560 0.246905421231 0.000000000000
0.456346655893 0.154661461344 0.000000000000
0.500222931536 0.154661461344 0.000000000000
0.741742247901 0.243216443962 0.000000000000
0.741268730070 0.155241815076 0.000000000000
2.077774871137 0.204999999724 0.000000000000
0.741180048448 0.199691651808 0.000000000000
0.362221973876 0.155091735794 0.000000000000
0.406098249519 0.155091735794 0.000000000000
0.406220648172 0.246409652160 0.000000000000
0.362344372529 0.246409652160 0.000000000000
0.340283836055 0.132023234465 0.000000000000
0.340406234708 0.269478153632 0.000000000000
0.529521876936 0.127665356738 0.000000000000
0.529777691678 0.274424529806 0.000000000000
0.183662194462 0.372383326750 0.000000000000
0.225026397804 0.355518850277 0.000000000000
0.268579712935 0.038957454750 0.000000000000
0.272848623279 0.089421176778 0.000000000000
0.230538242349 0.050463722028 0.000000000000
0.269246975117 0.368483990256 0.000000000000
0.268004040807 0.314002840533 0.000000000000
0.188654400380 0.043957722046 0.000000000000
0.301878082182 0.110888953420 0.000000000000
0.302545344309 0.291552491728 0.000000000000
0.535443210424 0.094777661897 0.000000000000
0.528255674933 0.372473677684 0.000000000000
0.535913117971 0.309379098915 0.000000000000
0.527852896933 0.035116200554 0.000000000000

CELLS 91 637
6 4 35 23 89 101 102
6 23 35 47 101 139 140
6 22 4 23 137 102 138
6 35 6 47 88 157 139
6 16 23 47 155 140 186
6 14 22 23 128 138 132
6 26 4 22 82 137 152
6 6 31 47 106 156 157
6 31 16 47 185 186 156
6 16 10 23 154 133 155
6 10 14 23 72 132 133
6 14 7 22 73 127 128
6 26 22 28 152 153 103
6 6 32 31 87 105 106
6 62 16 31 205 185 206
6 62 10 16 70 154 205
6 22 7 28 127 165 153
6 5 26 28 83 103 104
6 32 24 31 149 164 105
6 17 62 31 210 206 211
6 7 38 28 90 212 165
6 27 5 28 107 104 161
6 24 17 31 214 211 164
6 32 3 24 86 148 149
6 61 62 17 69 210 158
6 38 27 28 209 161 212
6 29 5 27 84 107 108
6 17 24 51 214 202 159
6 3 21 24 81 150 148
6 61 17 51 158 159 160
6 38 18 27 207 208 209
6 25 29 27 141 108 162
6 24 21 51 150 200 202
6 36 61 51 174 160 175
6 18 25 27 213 162 208
6 38 39 18 91 145 207
6 0 29 25 85 141 142
6 21 20 51 80 199 200
6 20 36 51 190 175 199
6 30 61 36 216 174 217
6 25 18 50 213 147 201
6 18 39 50 145 146 147
6 11 0 25 71 142 144
6 20 19 36 79 189 190
6 30 36 54 217 204 188
6 60 61 30 68 216 134
6 11 25 50 144 201 197
6 39 34 50 181 182 146
6 36 19 54 189 166 204
6 37 30 54 135 188 117
6 60 30 37 134 135 136
6 12 11 50 74 197 198
6 34 12 50 191 198 182
6 39 33 34 218 215 181
6 19 2 54 78 118 166
6 2 37 54 116 117 118
6 15 60 37 143 136 193
6 13 12 34 75 191 192
6 34 33 63 215 187 203
6 39 40 33 92 129 218
6 37 2 55 116 126 167
6 15 37 55 193 167 196
6 59 60 15 67 143 120
6 13 34 63 192 203 163
6 33 46 63 131 115 187
6 33 40 46 129 130 131
6 2 1 55 77 125 126
6 46 15 55 194 196 168
6 59 15 45 120 121 122
6 1 13 63 76 163 114
6 46 1 63 113 114 115
6 40 15 46 151 194 130
6 1 46 55 113 168 125
6 15 41 45 123 124 121
6 58 59 45 66 122 169
6 40 41 15 93 123 151
6 41 42 45 94 170 124
6 58 45 48 169 171 172
6 45 42 48 170 173 171
6 57 58 48 65 172 176
6 42 43 48 95 177 173
6 57 48 52 176 178 179
6 48 43 52 177 180 178
6 56 57 52 64 179 183
6 43 44 52 96 184 180
6 49 56 52 111 183 195
6 44 49 52 110 195 184
6 9 56 49 100 111 112
6 44 8 49 97 109 110
6 53 9 49 99 112 119
6 8 53 49 98 119 109

CELL_TYPES 91
69
69
69
69
69
69
69
69
69
69
69
69
69
69
69
69
69
69
69
69
69
69
69
69
69
69
69
69
69
69
69
69
69
69
69
69
69
69
69
69
69
69
69
69
69
69
69
69
69
69
69
69
69
69
69
69
69
69
69
69
69
69
69
69
69
69
69
69
69
69
69
69
69
69
69
69
69
69
69
69
69
69
69
69
69
69
69
69
69
69
69

POINT_DATA 219

VECTORS Displacement float
0.000151475062 -0.000443810431 0.000000000000
-0.036139623614 -0.051027687612 0.000000000000
-0.023443310239 -0.055583978525 0.000000000000
-0.000068916591 -0.000495287471 0.000000000000
0.000000073949 -0.000000838414 0.000000000000
0.000004512052 -0.000013277931 0.000000000000
-0.000002042574 -0.000014810356 0.000000000000
-0.000000010745 0.000000011494 0.000000000000
-0.000000000266 -0.000000000034 0.000000000000
-0.000000000313 -0.000000000077 0.000000000000
0.000000010902 0.000000011669 0.000000000000
-0.000283854847 0.021262120429 0.000000000000
-0.005295107600 0.032356939984 0.000000000000
-0.016411094237 0.002586727014 0.000000000000
-0.000000000685 0.000000001732 0.000000000000
-0.010858599216 -0.008410666277 0.000000000000
-0.001187736299 0.000163163882 0.000000000000
-0.005868959318 0.009521542695 0.000000000000
0.002512243593 0.009149848547 0.000000000000
-0.005371742424 -0.000735009247 0.000000000000
-0.003116269013 0.032327849193 0.000000000000
-0.005546653314 0.020317401577 0.000000000000
0.000101082794 -0.000137913621 0.000000000000
-0.000228729846 -0.000178440423 0.000000000000
-0.005768346545 0.008894169239 0.000000000000
0.002915891114 0.008976364406 0.000000000000
0.000000765601 -0.000002373138 0.000000000000
0.002366126024 0.002195243253 0.000000000000
0.000791078306 0.000111195801 0.000000000000
0.000026215444 -0.000076780593 0.000000000000
-0.000236156942 -0.014666607010 0.000000000000
-0.003370250148 0.001715322986 0.000000000000
-0.000011938369 -0.000085671690 0.000000000000
-0.017185870065 -0.014500870515 0.000000000000
-0.021697537852 0.006647720629 0.000000000000
-0.000000328660 -0.000002635154 0.000000000000
0.004650631719 0.006585430684 0.000000000000
-0.017095380094 -0.026297145691 0.000000000000
-0.000000033313 0.000000018890 0.000000000000
-0.000000154906 -0.000000066382 0.000000000000
0.000000014971 0.000000010336 0.000000000000
-0.000000044972 -0.000000044843 0.000000000000
-0.000000018201 -0.000000006617 0.000000000000
-0.000000005644 -0.000000000769 0.000000000000
-0.000000001393 -0.000000000065 0.000000000000
-0.001624037359 -0.000240287586 0.000000000000
-0.011571456484 -0.023574071887 0.000000000000
-0.001003904616 0.000006876335 0.000000000000
-0.000314977764 -0.000000812691 0.000000000000
-0.000008349811 0.000000093196 0.000000000000
-0.004432541033 0.021253453170 0.000000000000
-0.003496031666 0.021134085376 0.000000000000
-0.000053763051 0.000000548226 0.000000000000
-0.000000000070 -0.000000000019 0.000000000000
-0.004069527801 -0.025791006382 0.000000000000
-0.021474442224 -0.029050750909 0.000000000000
-0.000000001678 -0.000000000556 0.000000000000
-0.000000007519 -0.000000002995 0.000000000000
-0.000000029259 -0.000000015830 0.000000000000
-0.000000086025 -0.000000079368 0.000000000000
-0.000000057955 -0.000000011980 0.000000000000
0.000000072448 -0.000000060676 0.000000000000
0.000000011812 0.000000019554 0.000000000000
-0.026244095498 -0.024298448271 0.000000000000
0.000000001655 0.000000000370 0.000000000000
0.000000007436 0.000000001898 0.000000000000
0.000000030404 0.000000007613 0.000000000000
0.000000072122 0.000000157052 0.000000000000
0.000000035599 -0.000000114319 0.000000000000
-0.000000056698 0.000000033228 0.000000000000
0.000000009430 -0.000000015467 0.000000000000
0.001769811513 0.008915089273 0.000000000000
-0.000000003101 -0.000000002250 0.000000000000
0.000000003565 -0.000000001276 0.000000000000
-0.002535602815 0.030988104070 0.000000000000
-0.009411854381 0.022157566152 0.000000000000
-0.025954324574 -0.023050168243 0.000000000000
-0.029692368173 -0.053110815988 0.000000000000
-0.013475351059 -0.027424439278 0.000000000000
-0.002114202622 0.020751257884 0.000000000000
-0.005362250480 0.030789204333 0.000000000000
-0.003505038814 0.008265612725 0.000000000000
-0.000000110413 0.000000415884 0.000000000000
-0.000000685186 0.000002026508 0.000000000000
-0.000003944706 0.000011574010 0.000000000000
-0.000022843412 0.000066976912 0.000000000000
0.000010384166 0.000074746818 0.000000000000
0.000001783164 0.000012920515 0.000000000000
0.000000308380 0.000002258624 0.000000000000
0.000000036971 0.000000449416 0.000000000000
-0.000000005703 -0.000000016399 0.000000000000
0.000000087313 0.000000035137 0.000000000000
-0.000000042403 -0.000000125290 0.000000000000
0.000000045018 0.000000135834 0.000000000000
0.000000017442 0.000000006565 0.000000000000
0.000000005570 0.000000001277 0.000000000000
0.000000001418 0.000000000152 0.000000000000
0.000000000300 0.000000000015 0.000000000000
-0.000000000011 0.000000000029 0.000000000000
0.000000000000 -0.000000000009 0.000000000000
0.000000000333 0.000000000074 0.000000000000
-0.000221875489 -0.000113376611 0.000000000000
-0.000115888452 -0.000105696971 0.000000000000
0.000452925290 0.000016188501 0.000000000000
0.000671980265 0.000141177759 0.000000000000
-0.002226766363 0.001424610548 0.000000000000
-0.001923640454 0.000768284369 0.000000000000
0.001277429803 0.000938326292 0.000000000000
0.001478351435 0.001659547338 0.000000000000
-0.000002019740 0.000000171589 0.000000000000
-0.000010778905 0.000001768675 0.000000000000
-0.000010704215 -0.000001554498 0.000000000000
-0.000002001964 -0.000000126701 0.000000000000
-0.018911405762 -0.033688885439 0.000000000000
-0.029182882374 -0.035324786841 0.000000000000
-0.018495299698 -0.028518335839 0.000000000000
-0.018978153028 -0.036481137551 0.000000000000
-0.012850265564 -0.031052124832 0.000000000000
-0.011184968666 -0.037646106909 0.000000000000
-0.000003272077 0.000000042296 0.000000000000
-0.005543137803 -0.002163236138 0.000000000000
-0.004099476599 -0.000796210717 0.000000000000
-0.002235833140 -0.000450487014 0.000000000000
-0.002830464113 -0.002002285880 0.000000000000
-0.001709371470 0.000141373041 0.000000000000
-0.024596203741 -0.045803698489 0.000000000000
-0.026840705062 -0.045911074357 0.000000000000
0.000085544469 -0.000041673000 0.000000000000
0.000005353718 -0.000111005451 0.000000000000
-0.004493085576 -0.008466721592 0.000000000000
-0.004171143903 -0.009827632380 0.000000000000
-0.015233327764 -0.021409329077 0.000000000000
-0.000062518377 -0.000124732320 0.000000000000
-0.000167933583 -0.000043538947 0.000000000000
-0.004814938810 -0.008759619156 0.000000000000
-0.008087082725 -0.023406580688 0.000000000000
-0.009294216597 -0.010788465576 0.000000000000
0.000049895150 -0.000086546109 0.000000000000
-0.000034033173 -0.000136102758 0.000000000000
-0.000442725174 -0.000050984483 0.000000000000
-0.000498782387 -0.000128306474 0.000000000000
0.001997555526 0.003937894290 0.000000000000
0.001748186984 0.004826828965 0.000000000000
-0.012247531479 -0.010421862939 0.000000000000
0.001663661419 0.014033676456 0.000000000000
-0.003522827742 0.005614229149 0.000000000000
-0.008139574537 0.007848922574 0.000000000000
0.000458687723 0.014628210061 0.000000000000
-0.003182839318 0.004604759814 0.000000000000
-0.003379195963 0.003900289598 0.000000000000
-0.005509835981 0.013703660820 0.000000000000
-0.005834739963 -0.007467208959 0.000000000000
0.000111224480 -0.000079312558 0.000000000000
0.000375498346 -0.000087554029 0.000000000000
-0.000245136989 -0.000033938320 0.000000000000
-0.000721859278 -0.000102630076 0.000000000000
-0.001939170901 0.000515011316 0.000000000000
-0.000717434258 0.000047015227 0.000000000000
-0.000284364440 0.006116276344 0.000000000000
-0.005588049847 0.014849105215 0.000000000000
0.001298996805 0.008341455791 0.000000000000
0.001385459734 0.000591124064 0.000000000000
0.002525582370 0.004702610646 0.000000000000
-0.025528244614 -0.014848601173 0.000000000000
-0.004187056476 0.004277976852 0.000000000000
0.000166382464 -0.000047021240 0.000000000000
-0.004883081093 -0.016403516175 0.000000000000
-0.019839706829 -0.029187928197 0.000000000000
-0.015849643296 -0.026719013796 0.000000000000
-0.000819014312 -0.000070591921 0.000000000000
-0.000685962159 -0.000064628603 0.000000000000
-0.000709801994 -0.000016318014 0.000000000000
-0.000408267021 -0.000062508940 0.000000000000
-0.000375240444 0.000056276089 0.000000000000
0.003292611612 0.003434456605 0.000000000000
0.001364815213 0.017480881782 0.000000000000
-0.000142238967 -0.000000493369 0.000000000000
-0.000138011579 0.000001242393 0.000000000000
-0.000127307841 0.000001720689 0.000000000000
-0.000068885554 -0.000009575253 0.000000000000
-0.000068536912 0.000011119100 0.000000000000
-0.012384925798 0.002980716819 0.000000000000
-0.013039133111 0.017665530437 0.000000000000
-0.000022582478 0.000000027055 0.000000000000
-0.000022633740 0.000000377762 0.000000000000
-0.001968367985 0.000509098909 0.000000000000
-0.001226540036 0.000104141989 0.000000000000
-0.021284996090 -0.018975102413 0.000000000000
-0.002176600585 -0.019400908348 0.000000000000
0.000064668665 0.003994473402 0.000000000000
0.000134142780 0.018703330623 0.000000000000
-0.013741408631 0.019529804460 0.000000000000
-0.019760556033 0.004721242796 0.000000000000
-0.017096355067 -0.017172071582 0.000000000000
-0.011824289951 -0.015642594743 0.000000000000
-0.000021087876 0.000000266394 0.000000000000
-0.015132273291 -0.016925402474 0.000000000000
-0.001338821909 0.023121972793 0.000000000000
-0.005762597960 0.026318258827 0.000000000000
-0.003362004434 0.025883712602 0.000000000000
-0.005551402947 0.022795803613 0.000000000000
0.000801062425 0.017173515435 0.000000000000
-0.006287854192 0.017219046601 0.000000000000
-0.025093430024 -0.008611994988 0.000000000000
0.002241336973 -0.008590233802 0.000000000000
-0.001473815790 0.000556428151 0.000000000000
-0.002801997129 0.001634526762 0.000000000000
0.002122485841 0.002828388991 0.000000000000
0.002928339512 0.005463705254 0.000000000000
0.001853040754 0.001484794385 0.000000000000
-0.003284136365 0.003086336105 0.000000000000
-0.005252563655 0.005338135938 0.000000000000
0.001155616752 0.000520823912 0.000000000000
0.002450202517 0.009597738879 0.000000000000
-0.005915157924 0.009930540501 0.000000000000
-0.022196560223 -0.008951273996 0.000000000000
0.003103139158 -0.003119137335 0.000000000000
0.003108060476 -0.008481136025 0.000000000000
-0.010497133427 -0.003542328347 0.000000000000

CELL_DATA 91

SCALARS Density float
LOOKUP_TABLE default
0.000000000000
0.000000000000
0.000000000000
0.000000000000
0.000000000000
0.000000000000
0.000000000000
0.000000000000
0.000000000000
0.000000000000
0.000000000000
0.000000000000
0.000000000000
0.000000000000
0.000000000000
0.000000000000
0.000000000000
0.000000000000
0.000000000000
0.000000000000
0.000000000000
0.000000000000
0.000000000000
0.000000000000
0.000000000000
0.000000000000
0.000000000000
0.000000000000
0.000000000000
0.000000000000
0.000000000000
0.000000000000
0.000000000000
0.000000000000
0.000000000000
0.000000000000
0.000000000000
0.000000000000
0.000000000000
0.000000000000
0.000000000000
0.000000000000
0.000000000000
0.000000000000
0.000000000000
0.000000000000
0.000000000000
0.000000000000
0.000000000000
0.000000000000
0.000000000000
0.000000000000
0.000000000000
0.000000000000
0.000000000000
0.000000000000
0.000000000000
0.000000000000
0.000000000000
0.000000000000
0.000000000000
0.000000000000
0.000000000000
0.000000000000
0.000000000000
0.000000000000
0.000000000000
0.000000000000
0.000000000000
0.000000000000
0.000000000000
0.000000000000
0.000000000000
0.000000000000
0.000000000000
0.000000000000
0.000000000000
0.000000000000
0.000000000000
0.000000000000
0.000000000000
0.000000000000
0.000000000000
0.000000000000
0.000000000000
0.000000000000
0.000000000000
0.000000000000
0.000000000000
0.000000000000
0.000000000000

SCALARS Youngs_modulus float
LOOKUP_TABLE default
3.844641275907
2.993941814708
4.909685156778
3.052508361261
2.167910323466
4.844053188542
3.921754545614
2.487368310011
1.878009462511
1.432520480621
2.188576169523
2.391438916615
2.790582193369
2.857458209519
1.264181080323
1.022733951507
1.623011598907
2.784913380725
2.814368257693
1.291579548522
1.085879170109
2.275716698320
2.108509378496
3.715712805646
1.031248834344
1.396240404492
2.875356239927
2.240073127756
4.049249329828
1.360851363425
1.355384304727
2.832057970832
3.260449030637
1.554378792523
2.157097149975
1.067452590247
3.715712810686
3.746540490636
2.991578140162
1.325819497893
2.299306492629
1.436032984326
4.049249333148
3.735596445098
2.110941190877
1.022552675425
3.290646621634
1.637370143319
3.162379468944
2.092593132783
1.315918026133
3.779816724997
3.049730474703
1.399235786432
3.946507086613
3.136751018711
2.023922128156
3.770259790232
2.177681573086
1.054806557392
3.824459030151
3.937610987586
1.360000000000
3.203549381841
2.114599771708
1.362869821716
23.991781607254
3.888492112779
2.650584020312
3.958489335060
3.116941783957
2.071112051031
3.776299460831
2.818675476702
1.341933226019
1.444444444444
1.465009566504
2.608036781981
2.863906010328
1.340277779067
1.466944442934
2.604444451236
2.867777770451
1.340277779616
1.466944442291
2.604444449102
2.867777772753
1.340277778084
1.466944444085
2.604444445115
2.867777777055

SCALARS Poissons_ratio float
LOOKUP_TABLE default
0.000000000000
0.000000000000
0.000000000000
0.000000000000
0.000000000000
0.000000000000
0.000000000000
0.000000000000
0.000000000000
0.000000000000
0.000000000000
0.000000000000
0.000000000000
0.000000000000
0.000000000000
0.000000000000
0.000000000000
0.000000000000
0.000000000000
0.000000000000
0.000000000000
0.000000000000
0.000000000000
0.000000000000
0.000000000000
0.000000000000
0.000000000000
0.000000000000
0.000000000000
0.000000000000
0.000000000000
0.000000000000
0.000000000000
0.000000000000
0.000000000000
0.000000000000
0.000000000000
0.000000000000
0.000000000000
0.000000000000
0.000000000000
0.000000000000
0.000000000000
0.000000000000
0.000000000000
0.000000000000
0.000000000000
0.000000000000
0.000000000000
0.000000000000
0.000000000000
0.000000000000
0.000000000000
0.000000000000
0.000000000000
0.000000000000
0.000000000000
0.000000000000
0.000000000000
0.000000000000
0.000000000000
0.000000000000
0.000000000000
0.000000000000
0.000000000000
0.000000000000
0.000000000000
0.000000000000
0.000000000000
0.000000000000
0.000000000000
0.000000000000
0.000000000000
0.000000000000
0.000000000000
0.000000000000
0.000000000000
0.000000000000
0.000000000000
0.000000000000
0.000000000000
0.000000000000
0.000000000000
0.000000000000
0.000000000000
0.000000000000
0.000000000000
0.000000000000
0.000000000000
0.000000000000
0.000000000000
