# vtk DataFile Version 3.0
My problem

ASCII

DATASET UNSTRUCTURED_GRID

POINTS 1365 float
0.150000000000 0.200000000000 0.000000000000
0.164644660879 0.235355338998 0.000000000000
0.094125089635 0.257934478648 0.000000000000
0.150960735981 0.209754516105 0.000000000000
0.153806023369 0.219134171605 0.000000000000
0.158426519355 0.227778511606 0.000000000000
0.147014768068 0.241000123910 0.000000000000
0.129384875257 0.246644908823 0.000000000000
0.111754982446 0.252289693735 0.000000000000
0.108093817227 0.243450858986 0.000000000000
0.122062544818 0.228967239324 0.000000000000
0.136031272409 0.214483619662 0.000000000000
0.141196037928 0.233156418366 0.000000000000
0.124409358652 0.238350496252 0.000000000000
0.137463146241 0.224144420616 0.000000000000
0.094125089635 0.257934478648 0.000000000000
0.164644660879 0.235355338998 0.000000000000
0.163607239260 0.283089168565 0.000000000000
0.111754982446 0.252289693735 0.000000000000
0.129384875257 0.246644908823 0.000000000000
0.147014768068 0.241000123910 0.000000000000
0.164385305474 0.247288796390 0.000000000000
0.164125950070 0.259222253782 0.000000000000
0.163866594665 0.271155711173 0.000000000000
0.146236701854 0.276800496086 0.000000000000
0.128866164448 0.270511823607 0.000000000000
0.111495627042 0.264223151127 0.000000000000
0.146755412663 0.252933581302 0.000000000000
0.146496057259 0.264867038694 0.000000000000
0.129125519853 0.258578366215 0.000000000000
0.089743248417 0.148877807294 0.000000000000
0.150000000000 0.200000000000 0.000000000000
0.094125089635 0.257934478648 0.000000000000
0.104807436313 0.161658355470 0.000000000000
0.119871624208 0.174438903647 0.000000000000
0.134935812104 0.187219451823 0.000000000000
0.136031272409 0.214483619662 0.000000000000
0.122062544818 0.228967239324 0.000000000000
0.108093817227 0.243450858986 0.000000000000
0.093029629331 0.230670310809 0.000000000000
0.091934169026 0.203406142971 0.000000000000
0.090838708722 0.176141975132 0.000000000000
0.120967084513 0.201703071485 0.000000000000
0.106998356922 0.216186691147 0.000000000000
0.105902896617 0.188922523309 0.000000000000
0.164644660879 0.235355338998 0.000000000000
0.200000000000 0.250000000000 0.000000000000
0.163607239260 0.283089168565 0.000000000000
0.172221488281 0.241573480570 0.000000000000
0.180865828317 0.246193976599 0.000000000000
0.190245483865 0.249039264013 0.000000000000
0.190901809815 0.258272292141 0.000000000000
0.181803619630 0.266544584283 0.000000000000
0.172705429445 0.274816876424 0.000000000000
0.163866594665 0.271155711173 0.000000000000
0.164125950070 0.259222253782 0.000000000000
0.164385305474 0.247288796390 0.000000000000
0.181241008827 0.256840418298 0.000000000000
0.172420362667 0.264197770428 0.000000000000
0.172229011035 0.253107526576 0.000000000000
0.141055056809 0.334766653500 0.000000000000
0.094125089635 0.257934478648 0.000000000000
0.163607239260 0.283089168565 0.000000000000
0.129322565016 0.315558609787 0.000000000000
0.117590073222 0.296350566074 0.000000000000
0.105857581429 0.277142522361 0.000000000000
0.111495627042 0.264223151127 0.000000000000
0.128866164448 0.270511823607 0.000000000000
0.146236701854 0.276800496086 0.000000000000
0.157969193647 0.296008539799 0.000000000000
0.152331148035 0.308927911032 0.000000000000
0.146693102422 0.321847282266 0.000000000000
0.123228118835 0.283431194840 0.000000000000
0.140598656241 0.289719867320 0.000000000000
0.134960610629 0.302639238553 0.000000000000
0.000000000000 0.205000000001 0.000000000000
0.089743248417 0.148877807294 0.000000000000
0.094125089635 0.257934478648 0.000000000000
0.022435812104 0.190969451824 0.000000000000
0.044871624208 0.176938903647 0.000000000000
0.067307436313 0.162908355470 0.000000000000
0.090838708722 0.176141975132 0.000000000000
0.091934169026 0.203406142971 0.000000000000
0.093029629331 0.230670310809 0.000000000000
0.070593817227 0.244700858986 0.000000000000
0.047062544818 0.231467239324 0.000000000000
0.023531272409 0.218233619662 0.000000000000
0.068402896617 0.190172523309 0.000000000000
0.069498356922 0.217436691147 0.000000000000
0.045967084513 0.204203071486 0.000000000000
0.164644661002 0.164644660879 0.000000000000
0.150000000000 0.200000000000 0.000000000000
0.089743248417 0.148877807294 0.000000000000
0.158426519430 0.172221488281 0.000000000000
0.153806023401 0.180865828317 0.000000000000
0.150960735987 0.190245483865 0.000000000000
0.134935812104 0.187219451823 0.000000000000
0.119871624208 0.174438903647 0.000000000000
0.104807436313 0.161658355470 0.000000000000
0.108468601563 0.152819520690 0.000000000000
0.127193954710 0.156761234086 0.000000000000
0.145919307856 0.160702947483 0.000000000000
0.136367685948 0.177558650835 0.000000000000
0.122218438063 0.165055646683 0.000000000000
0.140100577670 0.168546653044 0.000000000000
0.200000000000 0.250000000000 0.000000000000
0.223783463494 0.301037700553 0.000000000000
0.163607239260 0.283089168565 0.000000000000
0.205945865874 0.262759425138 0.000000000000
0.211891731747 0.275518850277 0.000000000000
0.217837597621 0.288278275415 0.000000000000
0.208739407436 0.296550567556 0.000000000000
0.193695351377 0.292063434559 0.000000000000
0.178651295319 0.287576301562 0.000000000000
0.172705429445 0.274816876424 0.000000000000
0.181803619630 0.266544584283 0.000000000000
0.190901809815 0.258272292141 0.000000000000
0.202793541562 0.283791142418 0.000000000000
0.187749485504 0.279304009421 0.000000000000
0.196847675689 0.271031717280 0.000000000000
0.223783463494 0.301037700553 0.000000000000
0.141055056809 0.334766653500 0.000000000000
0.163607239260 0.283089168565 0.000000000000
0.203101361823 0.309469938790 0.000000000000
0.182419260152 0.317902177026 0.000000000000
0.161737158480 0.326334415263 0.000000000000
0.146693102422 0.321847282266 0.000000000000
0.152331148035 0.308927911032 0.000000000000
0.157969193647 0.296008539799 0.000000000000
0.178651295319 0.287576301562 0.000000000000
0.193695351377 0.292063434559 0.000000000000
0.208739407436 0.296550567556 0.000000000000
0.167375204093 0.313415044029 0.000000000000
0.173013249706 0.300495672796 0.000000000000
0.188057305764 0.304982805793 0.000000000000
0.141055056809 0.334766653500 0.000000000000
0.000000000000 0.410000000000 0.000000000000
0.094125089635 0.257934478648 0.000000000000
0.105791292607 0.353574990125 0.000000000000
0.070527528405 0.372383326750 0.000000000000
0.035263764202 0.391191663375 0.000000000000
0.023531272409 0.371983619662 0.000000000000
0.047062544818 0.333967239324 0.000000000000
0.070593817227 0.295950858986 0.000000000000
0.105857581429 0.277142522361 0.000000000000
0.117590073222 0.296350566074 0.000000000000
0.129322565016 0.315558609787 0.000000000000
0.058795036611 0.353175283037 0.000000000000
0.082326309020 0.315158902699 0.000000000000
0.094058800813 0.334366946412 0.000000000000
0.000000000000 0.410000000000 0.000000000000
0.000000000000 0.205000000001 0.000000000000
0.094125089635 0.257934478648 0.000000000000
0.000000000000 0.358750000000 0.000000000000
0.000000000000 0.307500000000 0.000000000000
0.000000000000 0.256250000000 0.000000000000
0.023531272409 0.218233619662 0.000000000000
0.047062544818 0.231467239324 0.000000000000
0.070593817227 0.244700858986 0.000000000000
0.070593817227 0.295950858986 0.000000000000
0.047062544818 0.333967239324 0.000000000000
0.023531272409 0.371983619662 0.000000000000
0.023531272409 0.269483619662 0.000000000000
0.047062544818 0.282717239324 0.000000000000
0.023531272409 0.320733619662 0.000000000000
0.000000000000 0.205000000001 0.000000000000
0.000000000000 0.000000000000 0.000000000000
0.089743248417 0.148877807294 0.000000000000
0.000000000000 0.153750000000 0.000000000000
0.000000000000 0.102500000000 0.000000000000
0.000000000000 0.051250000000 0.000000000000
0.022435812104 0.037219451823 0.000000000000
0.044871624208 0.074438903647 0.000000000000
0.067307436313 0.111658355470 0.000000000000
0.067307436313 0.162908355470 0.000000000000
0.044871624208 0.176938903647 0.000000000000
0.022435812104 0.190969451824 0.000000000000
0.022435812104 0.088469451824 0.000000000000
0.044871624208 0.125688903647 0.000000000000
0.022435812104 0.139719451824 0.000000000000
0.164644661002 0.164644660879 0.000000000000
0.089743248417 0.148877807294 0.000000000000
0.151039468757 0.087915444092 0.000000000000
0.145919307856 0.160702947483 0.000000000000
0.127193954710 0.156761234086 0.000000000000
0.108468601563 0.152819520690 0.000000000000
0.105067303502 0.133637216493 0.000000000000
0.120391358587 0.118396625693 0.000000000000
0.135715413672 0.103156034892 0.000000000000
0.154440766818 0.107097748289 0.000000000000
0.157842064879 0.126280052485 0.000000000000
0.161243362941 0.145462356682 0.000000000000
0.123792656648 0.137578929890 0.000000000000
0.139116711733 0.122338339089 0.000000000000
0.142518009794 0.141520643286 0.000000000000
0.200000000000 0.250000000000 0.000000000000
0.231622776514 0.238729833533 0.000000000000
0.223783463494 0.301037700553 0.000000000000
0.208517251206 0.249269223983 0.000000000000
0.216785534301 0.247098257274 0.000000000000
0.224563158735 0.243550559502 0.000000000000
0.229662948259 0.254306800288 0.000000000000
0.227703120004 0.269883767043 0.000000000000
0.225743291749 0.285460733798 0.000000000000
0.217837597621 0.288278275415 0.000000000000
0.211891731747 0.275518850277 0.000000000000
0.205945865874 0.262759425138 0.000000000000
0.222423828817 0.258809269208 0.000000000000
0.220161834232 0.273723796148 0.000000000000
0.214400875052 0.261668601448 0.000000000000
0.226269332114 0.410000000000 0.000000000000
0.141055056809 0.334766653500 0.000000000000
0.223783463494 0.301037700553 0.000000000000
0.204965763288 0.391191663375 0.000000000000
0.183662194462 0.372383326750 0.000000000000
0.162358625636 0.353574990125 0.000000000000
0.161737158480 0.326334415263 0.000000000000
0.182419260152 0.317902177026 0.000000000000
0.203101361823 0.309469938790 0.000000000000
0.224404930649 0.328278275415 0.000000000000
[...]
POINT_DATA 1365

TENSORS Scaled_strain_rate float
11.794758763547 -29.218011271482 -8.488845937925 0.000000000000 0.000000000000 0.000000000000 0.000000000000 0.000000000000 0.000000000000
221.609471029474 -196.992074696595 44.827110531441 0.000000000000 0.000000000000 0.000000000000 0.000000000000 0.000000000000 0.000000000000
12.208414777940 23.413712016299 -10.171535580184 0.000000000000 0.000000000000 0.000000000000 0.000000000000 0.000000000000 0.000000000000
50.600979212809 -44.510097890292 102.752725287656 0.000000000000 0.000000000000 0.000000000000 0.000000000000 0.000000000000 0.000000000000
103.839541540635 -101.312931362167 124.823334475997 0.000000000000 0.000000000000 0.000000000000 0.000000000000 0.000000000000 0.000000000000
165.887767604221 -159.174208952496 100.636152299666 0.000000000000 0.000000000000 0.000000000000 0.000000000000 0.000000000000 0.000000000000
-13.527394719766 11.010133248519 -50.107864901824 0.000000000000 0.000000000000 0.000000000000 0.000000000000 0.000000000000 0.000000000000
6.858177312562 2.177856018084 -10.834738655144 0.000000000000 0.000000000000 0.000000000000 0.000000000000 0.000000000000 0.000000000000
4.756972985348 -18.178410140477 -26.278741177396 0.000000000000 0.000000000000 0.000000000000 0.000000000000 0.000000000000 0.000000000000
10.537539473697 2.020706463301 -13.361080664745 0.000000000000 0.000000000000 0.000000000000 0.000000000000 0.000000000000 0.000000000000
5.530507006106 0.091200158931 -11.340120034408 0.000000000000 0.000000000000 0.000000000000 0.000000000000 0.000000000000 0.000000000000
43.669664731784 -51.039434541301 -40.155217007592 0.000000000000 0.000000000000 0.000000000000 0.000000000000 0.000000000000 0.000000000000
4.019733853537 -4.197772483185 -64.953213642475 0.000000000000 0.000000000000 0.000000000000 0.000000000000 0.000000000000 0.000000000000
5.877153938093 -5.870871431487 -20.831742613789 0.000000000000 0.000000000000 0.000000000000 0.000000000000 0.000000000000 0.000000000000
25.872993309900 -25.126526993689 -58.137856287533 0.000000000000 0.000000000000 0.000000000000 0.000000000000 0.000000000000 0.000000000000
-37.936417339458 30.621493854565 28.078493737592 0.000000000000 0.000000000000 0.000000000000 0.000000000000 0.000000000000 0.000000000000
200.713930329547 -206.073830564690 4.656402827828 0.000000000000 0.000000000000 0.000000000000 0.000000000000 0.000000000000 0.000000000000
-18.156036062208 14.630441741917 -3.306146704567 0.000000000000 0.000000000000 0.000000000000 0.000000000000 0.000000000000 0.000000000000
8.315664872252 -1.919223750790 -27.716357161810 0.000000000000 0.000000000000 0.000000000000 0.000000000000 0.000000000000 0.000000000000
-4.955098042035 1.870658165498 -18.690310426081 0.000000000000 0.000000000000 0.000000000000 0.000000000000 0.000000000000 0.000000000000
-6.724732700590 5.269362463615 -48.183909572436 0.000000000000 0.000000000000 0.000000000000 0.000000000000 0.000000000000 0.000000000000
29.986110230117 -38.050891559633 -15.718873192037 0.000000000000 0.000000000000 0.000000000000 0.000000000000 0.000000000000 0.000000000000
-23.098579963559 18.887257110094 3.420433989060 0.000000000000 0.000000000000 0.000000000000 0.000000000000 0.000000000000 0.000000000000
-24.293363536429 21.648721848005 0.404594959616 0.000000000000 0.000000000000 0.000000000000 0.000000000000 0.000000000000 0.000000000000
-5.271650061225 8.410554683214 -6.673416103349 0.000000000000 0.000000000000 0.000000000000 0.000000000000 0.000000000000 0.000000000000
-15.459705580778 22.325389937454 5.121241417950 0.000000000000 0.000000000000 0.000000000000 0.000000000000 0.000000000000 0.000000000000
-29.933958591150 44.214329890832 23.221709688317 0.000000000000 0.000000000000 0.000000000000 0.000000000000 0.000000000000 0.000000000000
-25.797280245665 27.372406582190 -27.002416271022 0.000000000000 0.000000000000 0.000000000000 0.000000000000 0.000000000000 0.000000000000
-10.542755609557 9.783880764530 -16.296301902514 0.000000000000 0.000000000000 0.000000000000 0.000000000000 0.000000000000 0.000000000000
6.917251177736 -10.013664642171 -22.053416491364 0.000000000000 0.000000000000 0.000000000000 0.000000000000 0.000000000000 0.000000000000
-14.897943570204 30.254954281203 -8.150461640885 0.000000000000 0.000000000000 0.000000000000 0.000000000000 0.000000000000 0.000000000000
64.970205749183 -54.805530363559 -16.375824285065 0.000000000000 0.000000000000 0.000000000000 0.000000000000 0.000000000000 0.000000000000
-16.895006645585 29.247908852956 6.459848311879 0.000000000000 0.000000000000 0.000000000000 0.000000000000 0.000000000000 0.000000000000
6.134726259142 -7.933919232867 20.862319697047 0.000000000000 0.000000000000 0.000000000000 0.000000000000 0.000000000000 0.000000000000
11.291074127316 -13.108409058735 26.937014103609 0.000000000000 0.000000000000 0.000000000000 0.000000000000 0.000000000000 0.000000000000
38.490882515555 -37.431632642822 27.273345761335 0.000000000000 0.000000000000 0.000000000000 0.000000000000 0.000000000000 0.000000000000
39.787707708989 -37.655600481037 -27.371744887246 0.000000000000 0.000000000000 0.000000000000 0.000000000000 0.000000000000 0.000000000000
12.896213532287 -13.817333369642 -28.022144384346 0.000000000000 0.000000000000 0.000000000000 0.000000000000 0.000000000000 0.000000000000
4.791126097139 -5.993121386656 -20.677863296716 0.000000000000 0.000000000000 0.000000000000 0.000000000000 0.000000000000 0.000000000000
6.833860813601 -7.837166788476 -7.462858049631 0.000000000000 0.000000000000 0.000000000000 0.000000000000 0.000000000000 0.000000000000
8.640407822642 -9.897252879262 0.445019109659 0.000000000000 0.000000000000 0.000000000000 0.000000000000 0.000000000000 0.000000000000
5.737021745189 -6.863006678119 8.027345580522 0.000000000000 0.000000000000 0.000000000000 0.000000000000 0.000000000000 0.000000000000
25.536332391634 -25.476049185932 0.149847451624 0.000000000000 0.000000000000 0.000000000000 0.000000000000 0.000000000000 0.000000000000
15.273064348105 -14.814869776765 -7.367639477131 0.000000000000 0.000000000000 0.000000000000 0.000000000000 0.000000000000 0.000000000000
15.375643106311 -14.781579520763 5.886374453846 0.000000000000 0.000000000000 0.000000000000 0.000000000000 0.000000000000 0.000000000000
224.410111755682 -233.945194275022 -29.632754496221 0.000000000000 0.000000000000 0.000000000000 0.000000000000 0.000000000000 0.000000000000
-26.354548416451 6.197028656517 -199.828026871199 0.000000000000 0.000000000000 0.000000000000 0.000000000000 0.000000000000 0.000000000000
-13.556415763528 35.936921824802 9.297373255673 0.000000000000 0.000000000000 0.000000000000 0.000000000000 0.000000000000 0.000000000000
222.063708498278 -223.570557303851 -129.592453003798 0.000000000000 0.000000000000 0.000000000000 0.000000000000 0.000000000000 0.000000000000
166.205787743363 -161.695905615984 -206.181018931510 0.000000000000 0.000000000000 0.000000000000 0.000000000000 0.000000000000 0.000000000000
76.946968126229 -74.598306645136 -226.828105101717 0.000000000000 0.000000000000 0.000000000000 0.000000000000 0.000000000000 0.000000000000
53.954454110553 -44.276632325137 -60.992576473626 0.000000000000 0.000000000000 0.000000000000 0.000000000000 0.000000000000 0.000000000000
-9.793450469347 11.334015767272 20.007799917579 0.000000000000 0.000000000000 0.000000000000 0.000000000000 0.000000000000 0.000000000000
-25.924549684517 17.400767614167 9.800611509638 0.000000000000 0.000000000000 0.000000000000 0.000000000000 0.000000000000 0.000000000000
-14.227198996891 11.785293306495 9.704214257139 0.000000000000 0.000000000000 0.000000000000 0.000000000000 0.000000000000 0.000000000000
-23.916421813059 18.768433684461 -2.266501966252 0.000000000000 0.000000000000 0.000000000000 0.000000000000 0.000000000000 0.000000000000
31.239546109346 -26.647126835785 -42.221388191286 0.000000000000 0.000000000000 0.000000000000 0.000000000000 0.000000000000 0.000000000000
36.334663389938 -37.455389840355 -40.166837322913 0.000000000000 0.000000000000 0.000000000000 0.000000000000 0.000000000000 0.000000000000
-24.512690725293 24.995199961530 11.325267905667 0.000000000000 0.000000000000 0.000000000000 0.000000000000 0.000000000000 0.000000000000
25.056197061079 -25.168295358246 -31.219991767508 0.000000000000 0.000000000000 0.000000000000 0.000000000000 0.000000000000 0.000000000000
-9.963103565972 9.635245947269 13.216235426633 0.000000000000 0.000000000000 0.000000000000 0.000000000000 0.000000000000 0.000000000000
39.342576420038 -71.281138362128 3.693481924262 0.000000000000 0.000000000000 0.000000000000 0.000000000000 0.000000000000 0.000000000000
-12.721714673741 7.871216343957 5.199199244807 0.000000000000 0.000000000000 0.000000000000 0.000000000000 0.000000000000 0.000000000000
-3.908251240187 2.834482330451 0.907252255770 0.000000000000 0.000000000000 0.000000000000 0.000000000000 0.000000000000 0.000000000000
-8.777133141209 7.939476883759 5.294778417146 0.000000000000 0.000000000000 0.000000000000 0.000000000000 0.000000000000 0.000000000000
0.762404851579 3.858985161323 -11.938072843221 0.000000000000 0.000000000000 0.000000000000 0.000000000000 0.000000000000 0.000000000000
-12.692279682043 0.263192672760 1.952512132170 0.000000000000 0.000000000000 0.000000000000 0.000000000000 0.000000000000 0.000000000000
-15.559498998726 11.667002453557 -2.049601168682 0.000000000000 0.000000000000 0.000000000000 0.000000000000 0.000000000000 0.000000000000
-11.509454708086 10.159826045019 1.054490413654 0.000000000000 0.000000000000 0.000000000000 0.000000000000 0.000000000000 0.000000000000
-8.486978076789 7.736642618804 0.406448686262 0.000000000000 0.000000000000 0.000000000000 0.000000000000 0.000000000000 0.000000000000
-5.801236121998 4.491153698614 3.934965667874 0.000000000000 0.000000000000 0.000000000000 0.000000000000 0.000000000000 0.000000000000
-5.104430885475 3.949423410453 8.165685091883 0.000000000000 0.000000000000 0.000000000000 0.000000000000 0.000000000000 0.000000000000
-3.119353384889 4.516013947809 -8.256113140774 0.000000000000 0.000000000000 0.000000000000 0.000000000000 0.000000000000 0.000000000000
-8.245423940875 8.730499745808 -1.949268200398 0.000000000000 0.000000000000 0.000000000000 0.000000000000 0.000000000000 0.000000000000
-7.575653696588 6.943107491274 3.245666307026 0.000000000000 0.000000000000 0.000000000000 0.000000000000 0.000000000000 0.000000000000
-2.434073680698 0.869116691379 0.502714747271 0.000000000000 0.000000000000 0.000000000000 0.000000000000 0.000000000000 0.000000000000
-4.844394841942 -1.498670749188 4.102762195864 0.000000000000 0.000000000000 0.000000000000 0.000000000000 0.000000000000 0.000000000000
-4.197148134802 -0.197083301537 -4.507019523766 0.000000000000 0.000000000000 0.000000000000 0.000000000000 0.000000000000 0.000000000000
1.006550828028 -1.347818238217 0.126815834743 0.000000000000 0.000000000000 0.000000000000 0.000000000000 0.000000000000 0.000000000000
2.131588010292 -3.042988790995 0.117086534279 0.000000000000 0.000000000000 0.000000000000 0.000000000000 0.000000000000 0.000000000000
3.532222967937 -4.168931258071 2.124765746074 0.000000000000 0.000000000000 0.000000000000 0.000000000000 0.000000000000 0.000000000000
8.217559424590 -7.829589305673 6.097899884579 0.000000000000 0.000000000000 0.000000000000 0.000000000000 0.000000000000 0.000000000000
11.453645251652 -11.623307107699 -0.441118626217 0.000000000000 0.000000000000 0.000000000000 0.000000000000 0.000000000000 0.000000000000
8.543519844588 -8.119540002143 -7.365018855623 0.000000000000 0.000000000000 0.000000000000 0.000000000000 0.000000000000 0.000000000000
3.312363362161 -3.846659189343 -1.435878073242 0.000000000000 0.000000000000 0.000000000000 0.000000000000 0.000000000000 0.000000000000
2.342111267889 -3.301094557876 0.475498930934 0.000000000000 0.000000000000 0.000000000000 0.000000000000 0.000000000000 0.000000000000
0.897347877136 -1.564828858817 1.185444029018 0.000000000000 0.000000000000 0.000000000000 0.000000000000 0.000000000000 0.000000000000
5.979173763612 -6.004741098508 2.116964058898 0.000000000000 0.000000000000 0.000000000000 0.000000000000 0.000000000000 0.000000000000
6.076275941646 -6.150137020850 -1.515363628178 0.000000000000 0.000000000000 0.000000000000 0.000000000000 0.000000000000 0.000000000000
3.624368747581 -3.553078277697 0.402798223838 0.000000000000 0.000000000000 0.000000000000 0.000000000000 0.000000000000 0.000000000000
249.415756208184 -265.995981658876 11.279902346928 0.000000000000 0.000000000000 0.000000000000 0.000000000000 0.000000000000 0.000000000000
9.625167660646 -20.429248553745 -51.552073684433 0.000000000000 0.000000000000 0.000000000000 0.000000000000 0.000000000000 0.000000000000
21.481531757474 12.671453532412 2.603490147848 0.000000000000 0.000000000000 0.000000000000 0.000000000000 0.000000000000 0.000000000000
190.566146027628 -182.974834717441 -119.610737389541 0.000000000000 0.000000000000 0.000000000000 0.000000000000 0.000000000000 0.000000000000
124.169632160595 -122.557032735963 -154.037120581249 0.000000000000 0.000000000000 0.000000000000 0.000000000000 0.000000000000 0.000000000000
63.195511631275 -56.319471581897 -143.180493421829 0.000000000000 0.000000000000 0.000000000000 0.000000000000 0.000000000000 0.000000000000
45.600207551885 -52.510278827444 43.257456290107 0.000000000000 0.000000000000 0.000000000000 0.000000000000 0.000000000000 0.000000000000
4.672432327517 1.647082239911 10.058028964831 0.000000000000 0.000000000000 0.000000000000 0.000000000000 0.000000000000 0.000000000000
6.730042791339 1.300104541827 21.034918865137 0.000000000000 0.000000000000 0.000000000000 0.000000000000 0.000000000000 0.000000000000
2.556325443524 -13.517607883320 16.587741099004 0.000000000000 0.000000000000 0.000000000000 0.000000000000 0.000000000000 0.000000000000
7.496852489812 -3.569146147399 16.699309706722 0.000000000000 0.000000000000 0.000000000000 0.000000000000 0.000000000000 0.000000000000
-14.401882979325 8.789225303663 48.374905808998 0.000000000000 0.000000000000 0.000000000000 0.000000000000 0.000000000000 0.000000000000
24.247262703300 -24.517999852005 62.145048102834 0.000000000000 0.000000000000 0.000000000000 0.000000000000 0.000000000000 0.000000000000
7.302100556504 -7.357687251770 22.049542264277 0.000000000000 0.000000000000 0.000000000000 0.000000000000 0.000000000000 0.000000000000
2.168710587457 -1.493039612527 65.846600716413 0.000000000000 0.000000000000 0.000000000000 0.000000000000 0.000000000000 0.000000000000
30.405178627499 -22.707830013457 -198.323532373140 0.000000000000 0.000000000000 0.000000000000 0.000000000000 0.000000000000 0.000000000000
7.718977810800 -5.941070562323 3.746178425439 0.000000000000 0.000000000000 0.000000000000 0.000000000000 0.000000000000 0.000000000000
11.647181005973 -8.392609709891 -3.477319520553 0.000000000000 0.000000000000 0.000000000000 0.000000000000 0.000000000000 0.000000000000
36.761223667568 -34.155422398956 -62.686648512038 0.000000000000 0.000000000000 0.000000000000 0.000000000000 0.000000000000 0.000000000000
7.895782852805 -8.083026200565 -6.000022350119 0.000000000000 0.000000000000 0.000000000000 0.000000000000 0.000000000000 0.000000000000
-2.111832559070 5.854085273078 14.805330250385 0.000000000000 0.000000000000 0.000000000000 0.000000000000 0.000000000000 0.000000000000
-4.034717185896 -2.201702521325 1.064540271388 0.000000000000 0.000000000000 0.000000000000 0.000000000000 0.000000000000 0.000000000000
0.470028415097 -4.299588066063 -4.561927020849 0.000000000000 0.000000000000 0.000000000000 0.000000000000 0.000000000000 0.000000000000
0.258219173185 -6.013282354676 -5.491075663565 0.000000000000 0.000000000000 0.000000000000 0.000000000000 0.000000000000 0.000000000000
-22.895623770050 25.985481150734 10.919192469028 0.000000000000 0.000000000000 0.000000000000 0.000000000000 0.000000000000 0.000000000000
-2.783372278803 1.219633452816 6.993525284194 0.000000000000 0.000000000000 0.000000000000 0.000000000000 0.000000000000 0.000000000000
45.236761225619 -49.705731098424 -55.621025956506 0.000000000000 0.000000000000 0.000000000000 0.000000000000 0.000000000000 0.000000000000
-10.232021602221 10.851431340674 20.922020282782 0.000000000000 0.000000000000 0.000000000000 0.000000000000 0.000000000000 0.000000000000
-17.431056871100 18.479253899851 21.462716658241 0.000000000000 0.000000000000 0.000000000000 0.000000000000 0.000000000000 0.000000000000
7.323700722029 -7.555852832305 -1.382242871615 0.000000000000 0.000000000000 0.000000000000 0.000000000000 0.000000000000 0.000000000000
-4.096721124431 6.186978106744 8.970694683065 0.000000000000 0.000000000000 0.000000000000 0.000000000000 0.000000000000 0.000000000000
0.791178158614 3.204405794442 3.560712626810 0.000000000000 0.000000000000 0.000000000000 0.000000000000 0.000000000000 0.000000000000
-16.301184185700 14.459821686849 5.861609608470 0.000000000000 0.000000000000 0.000000000000 0.000000000000 0.000000000000 0.000000000000
-6.403063317448 8.051569371331 15.565089785355 0.000000000000 0.000000000000 0.000000000000 0.000000000000 0.000000000000 0.000000000000
-6.871815971627 8.566278628187 13.096760143216 0.000000000000 0.000000000000 0.000000000000 0.000000000000 0.000000000000 0.000000000000
-7.511542337056 8.032494415318 10.450071211042 0.000000000000 0.000000000000 0.000000000000 0.000000000000 0.000000000000 0.000000000000
-7.329402675309 7.182416581183 8.110682849723 0.000000000000 0.000000000000 0.000000000000 0.000000000000 0.000000000000 0.000000000000
-6.615548921532 8.231821498192 6.052622777438 0.000000000000 0.000000000000 0.000000000000 0.000000000000 0.000000000000 0.000000000000
-8.763644782766 9.802206420450 4.014687878158 0.000000000000 0.000000000000 0.000000000000 0.000000000000 0.000000000000 0.000000000000
-9.337015035297 13.373166064109 1.841041692440 0.000000000000 0.000000000000 0.000000000000 0.000000000000 0.000000000000 0.000000000000
-5.269236142028 10.169667973380 3.763659053089 0.000000000000 0.000000000000 0.000000000000 0.000000000000 0.000000000000 0.000000000000
-2.841262952977 6.597340756464 3.791772039928 0.000000000000 0.000000000000 0.000000000000 0.000000000000 0.000000000000 0.000000000000
-7.962054676837 7.966805150998 6.581491817380 0.000000000000 0.000000000000 0.000000000000 0.000000000000 0.000000000000 0.000000000000
-9.784934314932 9.015459130894 9.835486817632 0.000000000000 0.000000000000 0.000000000000 0.000000000000 0.000000000000 0.000000000000
-8.510551662059 7.554642246478 11.756878723259 0.000000000000 0.000000000000 0.000000000000 0.000000000000 0.000000000000 0.000000000000
-6.285350415991 6.314465899858 9.735257549537 0.000000000000 0.000000000000 0.000000000000 0.000000000000 0.000000000000 0.000000000000
1.339504366499 -0.629136953264 14.264638163194 0.000000000000 0.000000000000 0.000000000000 0.000000000000 0.000000000000 0.000000000000
10.577826420410 -9.709221050865 -7.112458501218 0.000000000000 0.000000000000 0.000000000000 0.000000000000 0.000000000000 0.000000000000
-3.641657700174 3.818089007804 10.380586469391 0.000000000000 0.000000000000 0.000000000000 0.000000000000 0.000000000000 0.000000000000
-1.871837922351 2.262097689309 11.548693521900 0.000000000000 0.000000000000 0.000000000000 0.000000000000 0.000000000000 0.000000000000
-0.437237186305 0.879774728023 13.090339974121 0.000000000000 0.000000000000 0.000000000000 0.000000000000 0.000000000000 0.000000000000
-0.902647233163 0.732879748236 11.051897304068 0.000000000000 0.000000000000 0.000000000000 0.000000000000 0.000000000000 0.000000000000
-1.262932880097 1.477318932059 7.327753985537 0.000000000000 0.000000000000 0.000000000000 0.000000000000 0.000000000000 0.000000000000
-2.266000829881 1.611548342042 2.518754890513 0.000000000000 0.000000000000 0.000000000000 0.000000000000 0.000000000000 0.000000000000