# vtk DataFile Version 3.0
My problem

ASCII

DATASET UNSTRUCTURED_GRID

POINTS 85 float
0.248989794856 0.190000000000 0.000000000000
0.600000000000 0.190000000000 0.000000000000
0.600000000000 0.210000000000 0.000000000000
0.248989794856 0.210000000000 0.000000000000
0.336742346142 0.190000000000 0.000000000000
0.424494897427 0.190000000000 0.000000000000
0.512247448714 0.190000000000 0.000000000000
0.512247448714 0.210000000000 0.000000000000
0.424494897428 0.210000000000 0.000000000000
0.336742346142 0.210000000000 0.000000000000
0.358680483963 0.190000000000 0.000000000000
0.380618621784 0.190000000000 0.000000000000
0.402556759606 0.190000000000 0.000000000000
0.446433035249 0.190000000000 0.000000000000
0.468371173071 0.190000000000 0.000000000000
0.490309310892 0.190000000000 0.000000000000
0.534185586535 0.190000000000 0.000000000000
0.556123724357 0.190000000000 0.000000000000
0.578061862178 0.190000000000 0.000000000000
0.600000000000 0.195000000000 0.000000000000
0.600000000000 0.200000000000 0.000000000000
0.600000000000 0.205000000000 0.000000000000
0.270927932677 0.190000000000 0.000000000000
0.292866070499 0.190000000000 0.000000000000
0.314804208320 0.190000000000 0.000000000000
0.578061862178 0.210000000000 0.000000000000
0.556123724357 0.210000000000 0.000000000000
0.534185586536 0.210000000000 0.000000000000
0.490309310893 0.210000000000 0.000000000000
0.468371173071 0.210000000000 0.000000000000
0.446433035250 0.210000000000 0.000000000000
0.402556759607 0.210000000000 0.000000000000
0.380618621785 0.210000000000 0.000000000000
0.358680483964 0.210000000000 0.000000000000
0.314804208320 0.210000000000 0.000000000000
0.292866070499 0.210000000000 0.000000000000
0.270927932677 0.210000000000 0.000000000000
0.248989794856 0.205000000000 0.000000000000
0.248989794856 0.200000000000 0.000000000000
0.248989794856 0.195000000000 0.000000000000
0.314804208320 0.195000000000 0.000000000000
0.292866070499 0.200000000000 0.000000000000
0.270927932677 0.205000000000 0.000000000000
0.270927932677 0.195000000000 0.000000000000
0.292866070499 0.195000000000 0.000000000000
0.270927932677 0.200000000000 0.000000000000
0.336742346142 0.195000000000 0.000000000000
0.336742346142 0.200000000000 0.000000000000
0.336742346142 0.205000000000 0.000000000000
0.292866070499 0.205000000000 0.000000000000
0.314804208320 0.200000000000 0.000000000000
0.314804208320 0.205000000000 0.000000000000
0.424494897428 0.195000000000 0.000000000000
0.424494897428 0.200000000000 0.000000000000
0.424494897428 0.205000000000 0.000000000000
0.402556759607 0.205000000000 0.000000000000
0.380618621785 0.200000000000 0.000000000000
0.358680483963 0.195000000000 0.000000000000
0.380618621785 0.195000000000 0.000000000000
0.402556759606 0.195000000000 0.000000000000
0.402556759606 0.200000000000 0.000000000000
0.380618621785 0.205000000000 0.000000000000
0.358680483963 0.205000000000 0.000000000000
0.358680483963 0.200000000000 0.000000000000
0.490309310892 0.195000000000 0.000000000000
0.468371173071 0.200000000000 0.000000000000
0.446433035250 0.205000000000 0.000000000000
0.446433035249 0.195000000000 0.000000000000
0.468371173071 0.195000000000 0.000000000000
0.446433035249 0.200000000000 0.000000000000
0.512247448714 0.195000000000 0.000000000000
0.512247448714 0.200000000000 0.000000000000
0.512247448714 0.205000000000 0.000000000000
0.468371173071 0.205000000000 0.000000000000
0.490309310892 0.200000000000 0.000000000000
0.490309310893 0.205000000000 0.000000000000
0.578061862178 0.205000000000 0.000000000000
0.556123724357 0.200000000000 0.000000000000
0.534185586535 0.195000000000 0.000000000000
0.556123724357 0.195000000000 0.000000000000
0.578061862178 0.195000000000 0.000000000000
0.578061862178 0.200000000000 0.000000000000
0.556123724357 0.205000000000 0.000000000000
0.534185586535 0.205000000000 0.000000000000
0.534185586535 0.200000000000 0.000000000000

CELLS 8 128
15 0 4 3 22 23 24 40 41 42 37 38 39 43 44 45
15 3 4 9 42 41 40 46 47 48 34 35 36 49 50 51
15 8 9 4 31 32 33 48 47 46 57 56 55 61 62 63
15 4 5 8 10 11 12 52 53 54 55 56 57 58 59 60
15 5 6 8 13 14 15 64 65 66 54 53 52 67 68 69
15 8 6 7 66 65 64 70 71 72 28 29 30 73 74 75
15 2 7 6 25 26 27 72 71 70 78 77 76 82 83 84
15 6 1 2 16 17 18 19 20 21 76 77 78 79 80 81

CELL_TYPES 8
69
69
69
69
69
69
69
69

POINT_DATA 85

VECTORS Displacement float
0.000000000000 0.000000000000 0.000000000000
-0.036078279154 -0.050866070779 0.000000000000
-0.023347219284 -0.055439102784 0.000000000000
0.000000000000 0.000000000000 0.000000000000
0.000174234993 0.021363687345 0.000000000000
-0.005237960509 0.032071598798 0.000000000000
-0.016489496021 0.002560709665 0.000000000000
-0.005559499205 -0.000695175763 0.000000000000
-0.003150528489 0.031985629770 0.000000000000
-0.005611338881 0.020461001293 0.000000000000
-0.001264056238 0.027059504189 0.000000000000
-0.002639311877 0.030978904251 0.000000000000
-0.003857732770 0.032852271699 0.000000000000
-0.007031009213 0.028533811455 0.000000000000
-0.009376837478 0.022220451404 0.000000000000
-0.012550768484 0.013392243092 0.000000000000
-0.021030970453 -0.009766070130 0.000000000000
-0.025964500728 -0.023080884204 0.000000000000
-0.031024951637 -0.036894943892 0.000000000000
-0.032893431896 -0.052007132860 0.000000000000
-0.029712165216 -0.053147756361 0.000000000000
-0.026531382781 -0.054290976897 0.000000000000
0.001632892099 0.003440633109 0.000000000000
0.001947730132 0.009178036182 0.000000000000
0.000764707528 0.014798110705 0.000000000000
-0.018317707879 -0.041456208027 0.000000000000
-0.013472244194 -0.027466156957 0.000000000000
-0.009095378022 -0.013727463928 0.000000000000
-0.003141367453 0.011042791681 0.000000000000
-0.002052173458 0.020814319514 0.000000000000
-0.002204237624 0.027935252884 0.000000000000
-0.004342584512 0.032810670651 0.000000000000
-0.005341711157 0.030793263599 0.000000000000
-0.005882011114 0.026545609379 0.000000000000
-0.004492256477 0.013953882795 0.000000000000
-0.003605546962 0.008570713359 0.000000000000
-0.002056424090 0.003006833445 0.000000000000
0.000000000000 0.000000000000 0.000000000000
0.000000000000 0.000000000000 0.000000000000
0.000000000000 0.000000000000 0.000000000000
-0.000368425004 0.014548876927 0.000000000000
-0.001119458858 0.008804844242 0.000000000000
-0.001079415021 0.002968624867 0.000000000000
0.000970518295 0.003137382996 0.000000000000
0.000245324392 0.008934775984 0.000000000000
-0.000054183414 0.002983281375 0.000000000000
-0.001315764611 0.021128273654 0.000000000000
-0.002777590690 0.020898158817 0.000000000000
-0.004254280859 0.020663283665 0.000000000000
-0.002352647649 0.008673669607 0.000000000000
-0.001730591660 0.014350572223 0.000000000000
-0.003058602628 0.014163299286 0.000000000000
-0.004706904063 0.032212139724 0.000000000000
-0.004168402189 0.032239796714 0.000000000000
-0.003644430217 0.032162217677 0.000000000000
-0.004217004111 0.032964488486 0.000000000000
-0.004030576857 0.031041310139 0.000000000000
-0.002454982531 0.027012461444 0.000000000000
-0.003345607198 0.031049888982 0.000000000000
-0.003998171629 0.032977962670 0.000000000000
-0.004116384943 0.033015417620 0.000000000000
-0.004699544170 0.030959253795 0.000000000000
-0.004679241083 0.026784592252 0.000000000000
-0.003579617505 0.026928243388 0.000000000000
-0.010137716804 0.012905389841 0.000000000000
-0.005655092957 0.021697240140 0.000000000000
-0.003369899432 0.028234838686 0.000000000000
-0.005772374056 0.028528906763 0.000000000000
-0.007496056083 0.022001574005 0.000000000000
-0.004555673654 0.028430873223 0.000000000000
-0.013696018670 0.001808532386 0.000000000000
-0.010956544568 0.001023837406 0.000000000000
-0.008252533172 0.000194565563 0.000000000000
-0.003843377694 0.021303112781 0.000000000000
-0.007774321463 0.012354522603 0.000000000000
-0.005445544167 0.011735327922 0.000000000000
-0.021493738822 -0.040305197942 0.000000000000
-0.019697664243 -0.025243701278 0.000000000000
-0.018006901335 -0.010721433902 0.000000000000
-0.022820015877 -0.024160010631 0.000000000000
-0.027841229907 -0.038031616665 0.000000000000
-0.024665815510 -0.039166622424 0.000000000000
-0.016585791960 -0.026343041545 0.000000000000
-0.012050829076 -0.012690603910 0.000000000000
-0.015017996657 -0.011691292151 0.000000000000

CELL_DATA 8

SCALARS Density float
LOOKUP_TABLE default
10000.000000000000
10000.000000000000
10000.000000000000
10000.000000000000
10000.000000000000
10000.000000000000
10000.000000000000
10000.000000000000

SCALARS Youngs_modulus float
LOOKUP_TABLE default
1400000.000000000000
1400000.000000000000
1400000.000000000000
1400000.000000000000
1400000.000000000000
1400000.000000000000
1400000.000000000000
1400000.000000000000

SCALARS Poissons_ratio float
LOOKUP_TABLE default
0.400000000000
0.400000000000
0.400000000000
0.400000000000
0.400000000000
0.400000000000
0.400000000000
0.400000000000
