# vtk DataFile Version 3.0
My problem

ASCII

DATASET UNSTRUCTURED_GRID

POINTS 85 float
0.248989794856 0.190000000000 0.000000000000
0.600000000000 0.190000000000 0.000000000000
0.600000000000 0.210000000000 0.000000000000
0.248989794856 0.210000000000 0.000000000000
0.336742346142 0.190000000000 0.000000000000
0.424494897427 0.190000000000 0.000000000000
0.512247448714 0.190000000000 0.000000000000
0.512247448714 0.210000000000 0.000000000000
0.424494897428 0.210000000000 0.000000000000
0.336742346142 0.210000000000 0.000000000000
0.358680483963 0.190000000000 0.000000000000
0.380618621784 0.190000000000 0.000000000000
0.402556759606 0.190000000000 0.000000000000
0.446433035249 0.190000000000 0.000000000000
0.468371173071 0.190000000000 0.000000000000
0.490309310892 0.190000000000 0.000000000000
0.534185586535 0.190000000000 0.000000000000
0.556123724357 0.190000000000 0.000000000000
0.578061862178 0.190000000000 0.000000000000
0.600000000000 0.195000000000 0.000000000000
0.600000000000 0.200000000000 0.000000000000
0.600000000000 0.205000000000 0.000000000000
0.270927932677 0.190000000000 0.000000000000
0.292866070499 0.190000000000 0.000000000000
0.314804208320 0.190000000000 0.000000000000
0.578061862178 0.210000000000 0.000000000000
0.556123724357 0.210000000000 0.000000000000
0.534185586536 0.210000000000 0.000000000000
0.490309310893 0.210000000000 0.000000000000
0.468371173071 0.210000000000 0.000000000000
0.446433035250 0.210000000000 0.000000000000
0.402556759607 0.210000000000 0.000000000000
0.380618621785 0.210000000000 0.000000000000
0.358680483964 0.210000000000 0.000000000000
0.314804208320 0.210000000000 0.000000000000
0.292866070499 0.210000000000 0.000000000000
0.270927932677 0.210000000000 0.000000000000
0.248989794856 0.205000000000 0.000000000000
0.248989794856 0.200000000000 0.000000000000
0.248989794856 0.195000000000 0.000000000000
0.314804208320 0.195000000000 0.000000000000
0.292866070499 0.200000000000 0.000000000000
0.270927932677 0.205000000000 0.000000000000
0.270927932677 0.195000000000 0.000000000000
0.292866070499 0.195000000000 0.000000000000
0.270927932677 0.200000000000 0.000000000000
0.336742346142 0.195000000000 0.000000000000
0.336742346142 0.200000000000 0.000000000000
0.336742346142 0.205000000000 0.000000000000
0.292866070499 0.205000000000 0.000000000000
0.314804208320 0.200000000000 0.000000000000
0.314804208320 0.205000000000 0.000000000000
0.424494897428 0.195000000000 0.000000000000
0.424494897428 0.200000000000 0.000000000000
0.424494897428 0.205000000000 0.000000000000
0.402556759607 0.205000000000 0.000000000000
0.380618621785 0.200000000000 0.000000000000
0.358680483963 0.195000000000 0.000000000000
0.380618621785 0.195000000000 0.000000000000
0.402556759606 0.195000000000 0.000000000000
0.402556759606 0.200000000000 0.000000000000
0.380618621785 0.205000000000 0.000000000000
0.358680483963 0.205000000000 0.000000000000
0.358680483963 0.200000000000 0.000000000000
0.490309310892 0.195000000000 0.000000000000
0.468371173071 0.200000000000 0.000000000000
0.446433035250 0.205000000000 0.000000000000
0.446433035249 0.195000000000 0.000000000000
0.468371173071 0.195000000000 0.000000000000
0.446433035249 0.200000000000 0.000000000000
0.512247448714 0.195000000000 0.000000000000
0.512247448714 0.200000000000 0.000000000000
0.512247448714 0.205000000000 0.000000000000
0.468371173071 0.205000000000 0.000000000000
0.490309310892 0.200000000000 0.000000000000
0.490309310893 0.205000000000 0.000000000000
0.578061862178 0.205000000000 0.000000000000
0.556123724357 0.200000000000 0.000000000000
0.534185586535 0.195000000000 0.000000000000
0.556123724357 0.195000000000 0.000000000000
0.578061862178 0.195000000000 0.000000000000
0.578061862178 0.200000000000 0.000000000000
0.556123724357 0.205000000000 0.000000000000
0.534185586535 0.205000000000 0.000000000000
0.534185586535 0.200000000000 0.000000000000

CELLS 8 128
15 0 4 3 22 23 24 40 41 42 37 38 39 43 44 45
15 3 4 9 42 41 40 46 47 48 34 35 36 49 50 51
15 8 9 4 31 32 33 48 47 46 57 56 55 61 62 63
15 4 5 8 10 11 12 52 53 54 55 56 57 58 59 60
15 5 6 8 13 14 15 64 65 66 54 53 52 67 68 69
15 8 6 7 66 65 64 70 71 72 28 29 30 73 74 75
15 2 7 6 25 26 27 72 71 70 78 77 76 82 83 84
15 6 1 2 16 17 18 19 20 21 76 77 78 79 80 81

CELL_TYPES 8
69
69
69
69
69
69
69
69

POINT_DATA 85

VECTORS Displacement float
0.000000000000 0.000000000000 0.000000000000
0.000049074828 0.000764687235 0.000000000000
-0.000005470040 0.000764275910 0.000000000000
0.000000000000 0.000000000000 0.000000000000
0.000026296601 0.000089229436 0.000000000000
0.000040334563 0.000292472015 0.000000000000
0.000046970193 0.000526032359 0.000000000000
-0.000007257046 0.000525109680 0.000000000000
-0.000011053021 0.000291081027 0.000000000000
-0.000011940178 0.000087951473 0.000000000000
0.000030661666 0.000134206788 0.000000000000
0.000034508059 0.000183802355 0.000000000000
0.000037717300 0.000236912235 0.000000000000
0.000042511124 0.000349607529 0.000000000000
0.000044316153 0.000407822133 0.000000000000
0.000045790207 0.000466725434 0.000000000000
0.000047884154 0.000585566962 0.000000000000
0.000048544629 0.000645220627 0.000000000000
0.000048920593 0.000704915651 0.000000000000
0.000035408120 0.000764591040 0.000000000000
0.000021789853 0.000764476854 0.000000000000
0.000008151211 0.000764358304 0.000000000000
0.000004745855 0.000004244785 0.000000000000
0.000013542499 0.000020694680 0.000000000000
0.000020924317 0.000050553881 0.000000000000
-0.000005560431 0.000704460927 0.000000000000
-0.000005940555 0.000644591120 0.000000000000
-0.000006514162 0.000584778810 0.000000000000
-0.000008145503 0.000465675236 0.000000000000
-0.000009113567 0.000406653304 0.000000000000
-0.000010107279 0.000348330793 0.000000000000
-0.000011849245 0.000235485637 0.000000000000
-0.000012294450 0.000182263412 0.000000000000
-0.000012344397 0.000132626437 0.000000000000
-0.000010523860 0.000048918483 0.000000000000
-0.000007359950 0.000019320023 0.000000000000
-0.000003154980 0.000002871468 0.000000000000
0.000000000000 0.000000000000 0.000000000000
0.000000000000 0.000000000000 0.000000000000
0.000000000000 0.000000000000 0.000000000000
0.000012676428 0.000049723717 0.000000000000
0.000003120453 0.000019097515 0.000000000000
-0.000000823064 0.000002466714 0.000000000000
0.000002826512 0.000003188144 0.000000000000
0.000008429913 0.000019606325 0.000000000000
0.000001129402 0.000002591368 0.000000000000
0.000016677819 0.000088600580 0.000000000000
0.000007135703 0.000088196487 0.000000000000
-0.000002409998 0.000087993513 0.000000000000
-0.000002115106 0.000019006682 0.000000000000
0.000005047843 0.000049099977 0.000000000000
-0.000002632997 0.000048825774 0.000000000000
0.000027448856 0.000292041736 0.000000000000
0.000014599671 0.000291666280 0.000000000000
0.000001771076 0.000291346413 0.000000000000
0.000000540667 0.000235706088 0.000000000000
0.000011080836 0.000182789950 0.000000000000
0.000019858979 0.000133569255 0.000000000000
0.000022771009 0.000183234393 0.000000000000
0.000025288926 0.000236421656 0.000000000000
0.000012907585 0.000236019745 0.000000000000
-0.000000601188 0.000182464848 0.000000000000
-0.000001591953 0.000132769169 0.000000000000
0.000009112934 0.000133084118 0.000000000000
0.000032268713 0.000466439541 0.000000000000
0.000017557417 0.000407188339 0.000000000000
0.000003025378 0.000348592373 0.000000000000
0.000029320107 0.000349229888 0.000000000000
0.000030921256 0.000407492491 0.000000000000
0.000016163352 0.000348891458 0.000000000000
0.000033371315 0.000525790310 0.000000000000
0.000019804431 0.000525555703 0.000000000000
0.000006263456 0.000525328875 0.000000000000
0.000004216775 0.000406908474 0.000000000000
0.000018776575 0.000466169713 0.000000000000
0.000005307597 0.000465915230 0.000000000000
0.000008016983 0.000704576866 0.000000000000
0.000021251311 0.000644906472 0.000000000000
0.000034237320 0.000585358067 0.000000000000
0.000034883385 0.000645065406 0.000000000000
0.000035261262 0.000704803078 0.000000000000
0.000021623636 0.000704688345 0.000000000000
0.000007642863 0.000644747972 0.000000000000
0.000007047226 0.000584966710 0.000000000000
0.000020630410 0.000585159736 0.000000000000

CELL_DATA 8

SCALARS Density float
LOOKUP_TABLE default
1000.000000000000
1000.000000000000
1000.000000000000
1000.000000000000
1000.000000000000
1000.000000000000
1000.000000000000
1000.000000000000

SCALARS Youngs_modulus float
LOOKUP_TABLE default
1400000.000000000000
1400000.000000000000
1400000.000000000000
1400000.000000000000
1400000.000000000000
1400000.000000000000
1400000.000000000000
1400000.000000000000

SCALARS Poissons_ratio float
LOOKUP_TABLE default
0.400000000000
0.400000000000
0.400000000000
0.400000000000
0.400000000000
0.400000000000
0.400000000000
0.400000000000
