# vtk DataFile Version 3.0
fsi_3d_tube_discr_2

ASCII

DATASET UNSTRUCTURED_GRID

POINTS 697 float
 0.000000000000  0.000000000000  0.000000000000
 5.000000000000  0.000000000000  0.000000000000
 5.000000000000  0.500000000000  0.000000000000
 0.000000000000  0.500000000000  0.000000000000
 5.000000000000  0.000000000000  0.500000000000
 0.000000000000  0.000000000000  0.500000000000
 5.000000000000 -0.500000000000  0.000000000000
 0.000000000000 -0.500000000000  0.000000000000
 5.000000000000 -0.000000000000 -0.500000000000
 0.000000000000 -0.000000000000 -0.500000000000
 1.249999999998  0.000000000000  0.000000000000
 2.499999999996  0.000000000000  0.000000000000
 3.749999999998  0.000000000000  0.000000000000
 3.750000000000  0.500000000000  0.000000000000
 2.500000000000  0.500000000000  0.000000000000
 1.250000000000  0.500000000000  0.000000000000
 3.750000000000  0.000000000000  0.500000000000
 2.500000000000  0.000000000000  0.500000000000
 1.250000000000  0.000000000000  0.500000000000
 3.750000000000 -0.500000000000  0.000000000000
 2.500000000000 -0.500000000000  0.000000000000
 1.250000000000 -0.500000000000  0.000000000000
 3.750000000000 -0.000000000000 -0.500000000000
 2.500000000000 -0.000000000000 -0.500000000000
 1.250000000000 -0.000000000000 -0.500000000000
 5.000000000000  0.125000000000  0.000000000000
 5.000000000000  0.249999999999  0.000000000000
 5.000000000000  0.375000000000  0.000000000000
 0.312500000000  0.000000000000  0.000000000000
 0.624999999999  0.000000000000  0.000000000000
 0.937499999998  0.000000000000  0.000000000000
 4.687500000000  0.500000000000  0.000000000000
 4.374999999999  0.500000000000  0.000000000000
 4.062500000000  0.500000000000  0.000000000000
 3.437500000000  0.500000000000  0.000000000000
 3.125000000001  0.500000000000  0.000000000000
 2.812500000000  0.500000000000  0.000000000000
 2.187500000000  0.500000000000  0.000000000000
 1.875000000000  0.500000000000  0.000000000000
 1.562500000000  0.500000000000  0.000000000000
 0.937500000000  0.500000000000  0.000000000000
 0.625000000000  0.500000000000  0.000000000000
 0.312500000000  0.500000000000  0.000000000000
 0.000000000000  0.375000000000  0.000000000000
 0.000000000000  0.250000000001  0.000000000000
 0.000000000000  0.125000000000  0.000000000000
 5.000000000000  0.000000000000  0.125000000000
 5.000000000000  0.000000000000  0.249999999999
 5.000000000000  0.000000000000  0.375000000000
 1.562499999997  0.000000000000  0.000000000000
 1.874999999997  0.000000000000  0.000000000000
 2.187499999997  0.000000000000  0.000000000000
 4.687500000000  0.000000000000  0.500000000000
 4.374999999999  0.000000000000  0.500000000000
 4.062500000000  0.000000000000  0.500000000000
 3.437500000000  0.000000000000  0.500000000000
 3.125000000001  0.000000000000  0.500000000000
 2.812500000000  0.000000000000  0.500000000000
 2.187500000000  0.000000000000  0.500000000000
 1.875000000000  0.000000000000  0.500000000000
 1.562500000000  0.000000000000  0.500000000000
 0.937500000000  0.000000000000  0.500000000000
 0.625000000000  0.000000000000  0.500000000000
 0.312500000000  0.000000000000  0.500000000000
 0.000000000000  0.000000000000  0.375000000000
 0.000000000000  0.000000000000  0.250000000001
 0.000000000000  0.000000000000  0.125000000000
 5.000000000000  0.461939766029  0.191341716729
 5.000000000000  0.353553389598  0.353553391588
 5.000000000000  0.191341715475  0.461939766549
 0.000000000000  0.461939766029  0.191341716729
 0.000000000000  0.353553389598  0.353553391588
 0.000000000000  0.191341715475  0.461939766549
 5.000000000000 -0.125000000000  0.000000000000
 5.000000000000 -0.249999999999  0.000000000000
 5.000000000000 -0.375000000000  0.000000000000
 2.812499999997  0.000000000000  0.000000000000
 3.124999999997  0.000000000000  0.000000000000
 3.437499999998  0.000000000000  0.000000000000
 4.687500000000 -0.500000000000  0.000000000000
 4.374999999999 -0.500000000000  0.000000000000
 4.062500000000 -0.500000000000  0.000000000000
 3.437500000000 -0.500000000000  0.000000000000
 3.125000000001 -0.500000000000  0.000000000000
 2.812500000000 -0.500000000000  0.000000000000
 2.187500000000 -0.500000000000  0.000000000000
 1.875000000000 -0.500000000000  0.000000000000
 1.562500000000 -0.500000000000  0.000000000000
 0.937500000000 -0.500000000000  0.000000000000
 0.625000000000 -0.500000000000  0.000000000000
 0.312500000000 -0.500000000000  0.000000000000
 0.000000000000 -0.375000000000  0.000000000000
 0.000000000000 -0.250000000001  0.000000000000
 0.000000000000 -0.125000000000  0.000000000000
 5.000000000000 -0.191341716729  0.461939766029
 5.000000000000 -0.353553391588  0.353553389598
 5.000000000000 -0.461939766549  0.191341715475
 0.000000000000 -0.191341716729  0.461939766029
 0.000000000000 -0.353553391588  0.353553389598
 0.000000000000 -0.461939766549  0.191341715475
 5.000000000000 -0.000000000000 -0.125000000000
 5.000000000000 -0.000000000000 -0.249999999999
 5.000000000000 -0.000000000000 -0.375000000000
 4.062499999999  0.000000000000  0.000000000000
 4.374999999999  0.000000000000  0.000000000000
 4.687499999999  0.000000000000  0.000000000000
 4.687500000000 -0.000000000000 -0.500000000000
 4.374999999999 -0.000000000000 -0.500000000000
 4.062500000000 -0.000000000000 -0.500000000000
 3.437500000000 -0.000000000000 -0.500000000000
 3.125000000001 -0.000000000000 -0.500000000000
 2.812500000000 -0.000000000000 -0.500000000000
 2.187500000000 -0.000000000000 -0.500000000000
 1.875000000000 -0.000000000000 -0.500000000000
 1.562500000000 -0.000000000000 -0.500000000000
 0.937500000000 -0.000000000000 -0.500000000000
 0.625000000000 -0.000000000000 -0.500000000000
 0.312500000000 -0.000000000000 -0.500000000000
 0.000000000000 -0.000000000000 -0.375000000000
 0.000000000000 -0.000000000000 -0.250000000001
 0.000000000000 -0.000000000000 -0.125000000000
 5.000000000000 -0.461939766029 -0.191341716729
 5.000000000000 -0.353553389598 -0.353553391588
 5.000000000000 -0.191341715475 -0.461939766549
 0.000000000000 -0.461939766029 -0.191341716729
 0.000000000000 -0.353553389598 -0.353553391588
 0.000000000000 -0.191341715475 -0.461939766549
 5.000000000000  0.191341716759 -0.461939766017
 5.000000000000  0.353553391451 -0.353553389736
 5.000000000000  0.461939766519 -0.191341715546
 0.000000000000  0.191341716759 -0.461939766017
 0.000000000000  0.353553391451 -0.353553389736
 0.000000000000  0.461939766519 -0.191341715546
 0.937499999998  0.125000000000  0.000000000000
 0.624999999999  0.250000000000  0.000000000000
 0.312499999999  0.375000000000  0.000000000000
 0.312500000000  0.125000000000  0.000000000000
 0.624999999999  0.125000000000  0.000000000000
 0.312499999999  0.250000000000  0.000000000000
 1.249999999998  0.125000000000  0.000000000000
 1.249999999999  0.250000000000  0.000000000000
 1.249999999999  0.375000000000  0.000000000000
 0.624999999999  0.375000000000  0.000000000000
 0.937499999999  0.250000000000  0.000000000000
 0.937499999999  0.375000000000  0.000000000000
 2.187499999997  0.125000000000  0.000000000000
 1.874999999998  0.250000000000  0.000000000000
 1.562499999999  0.375000000000  0.000000000000
 1.562499999998  0.125000000000  0.000000000000
 1.874999999998  0.125000000000  0.000000000000
 1.562499999999  0.250000000000  0.000000000000
 2.499999999997  0.125000000000  0.000000000000
 2.499999999998  0.250000000000  0.000000000000
 2.499999999999  0.375000000000  0.000000000000
 1.874999999999  0.375000000000  0.000000000000
 2.187499999998  0.250000000000  0.000000000000
 2.187499999999  0.375000000000  0.000000000000
 3.437499999999  0.125000000000  0.000000000000
 3.124999999999  0.250000000000  0.000000000000
 2.812500000000  0.375000000000  0.000000000000
 2.812499999998  0.125000000000  0.000000000000
 3.124999999998  0.125000000000  0.000000000000
 2.812499999999  0.250000000000  0.000000000000
 3.749999999999  0.125000000000  0.000000000000
 3.749999999999  0.250000000000  0.000000000000
 3.750000000000  0.375000000000  0.000000000000
 3.125000000000  0.375000000000  0.000000000000
 3.437499999999  0.250000000000  0.000000000000
 3.437500000000  0.375000000000  0.000000000000
 4.687500000000  0.125000000000  0.000000000000
 4.375000000000  0.250000000000  0.000000000000
 4.062500000000  0.375000000000  0.000000000000
 4.062499999999  0.125000000000  0.000000000000
 4.374999999999  0.125000000000  0.000000000000
 4.062500000000  0.250000000000  0.000000000000
 4.375000000000  0.375000000000  0.000000000000
 4.687500000000  0.250000000000  0.000000000000
 4.687500000000  0.375000000000  0.000000000000
 5.000000000000  0.163320370375  0.163320370819
 5.000000000000  0.319358230414  0.184059206262
 5.000000000000  0.184059205137  0.319358231171
 4.062500000000  0.461939766256  0.191341716183
 4.375000000000  0.353553390593  0.353553390593
 4.687500000000  0.191341716183  0.461939766256
 4.687500000000  0.343803759387  0.363041285574
 4.687500000000  0.454121047395  0.209222547334
 4.374999999979  0.454121047521  0.209222547061
 3.750000000000  0.461939766256  0.191341716183
 3.750000000000  0.353553390593  0.353553390593
 3.750000000000  0.191341716183  0.461939766256
 4.375000000000  0.209222546389  0.454121047830
 4.062500000037  0.363041284714  0.343803760295
 4.062499999993  0.209222546560  0.454121047751
 2.812500000000  0.461939766256  0.191341716183
 3.125000000000  0.353553390593  0.353553390593
 3.437500000000  0.191341716183  0.461939766256
 3.437500000000  0.343803760014  0.363041284981
 3.437500000024  0.454121047592  0.209222546907
 3.125000000019  0.454121047653  0.209222546774
 2.500000000000  0.461939766256  0.191341716183
 2.500000000000  0.353553390593  0.353553390593
 2.500000000000  0.191341716183  0.461939766256
 3.124999999896  0.209222546439  0.454121047807
 2.812500000022  0.363041284715  0.343803760295
 2.812500000013  0.209222546562  0.454121047750
 1.562500000000  0.461939766256  0.191341716183
[...]
POINT_DATA 697

VECTORS Displacement float
-1.024696702731e-10 -1.220065927064e-18 -1.707210406836e-18
 4.417633719874e-10 -1.463588194895e-18  7.397419756504e-18
 1.584000386249e-10  8.179243880877e-11  9.544747779838e-11
-1.084701016361e-10  1.458999431034e-11 -4.663129591118e-11
 1.595471126932e-10 -9.936944541662e-11  7.695635563375e-11
-1.081415287604e-10  4.563984393684e-11  1.540352225756e-11
 1.584000396655e-10 -8.179243246340e-11 -9.544746673108e-11
-1.084701026817e-10 -1.458999526802e-11  4.663127656980e-11
 1.595471150463e-10  9.936943926239e-11 -7.695634332900e-11
-1.081415275267e-10 -4.563984175174e-11 -1.540352313059e-11
 3.403923358688e-03  1.466218958220e-11 -6.799129102687e-12
 5.310694210730e-03  4.745907214650e-11  5.671530586713e-12
-2.639010791704e-04  6.200025694002e-11  3.660082427748e-11
 4.323796989487e-04  6.530526921586e-03  1.137549242145e-04
 4.513984748994e-03  6.114966755771e-03  1.484307812340e-04
 3.089946359141e-03  1.436182275641e-03  5.464428212455e-05
 4.323467800253e-04 -1.068723889986e-04  6.524083033776e-03
 4.514726909616e-03 -1.499926285527e-04  6.118668710580e-03
 3.089910140487e-03 -5.564736025922e-05  1.436885615836e-03
 4.323796923467e-04 -6.530526764136e-03 -1.137548078851e-04
 4.513984749438e-03 -6.114966663331e-03 -1.484307820958e-04
 3.089946374252e-03 -1.436182240720e-03 -5.464431391133e-05
 4.323467854917e-04  1.068724954961e-04 -6.524083019627e-03
 4.514726918684e-03  1.499927282566e-04 -6.118668685412e-03
 3.089910138440e-03  5.564738806547e-05 -1.436885605339e-03
 1.598479600793e-10 -1.372971191341e-11 -1.155588844899e-10
 1.418330928714e-10 -1.980614168764e-10 -1.019209947983e-10
-7.486459572719e-12 -4.169999455839e-10 -1.337117890776e-10
 9.526601415713e-04  1.603504060689e-12  2.155198625044e-12
 1.896266169483e-03  4.955865852866e-12  7.489276145655e-13
 2.730134827562e-03  9.591596000366e-12 -3.531884270783e-12
-3.908728526396e-04  2.755582955155e-03  4.139279065489e-05
 1.794241472316e-05  3.847316154038e-03  4.327675064311e-05
 3.254692401773e-04  4.459229217507e-03 -3.020261934373e-06
 1.503206406831e-03  9.120391219010e-03  1.322923280716e-04
 2.746079966947e-03  9.742191018260e-03  8.994440450966e-05
 3.843888132705e-03  8.572099197898e-03  1.541712966768e-05
 4.439328991534e-03  3.772799371582e-03  1.117367489782e-04
 4.096369526933e-03  2.475794264569e-03  9.358897923740e-05
 3.615974113053e-03  1.842455487190e-03  6.703859767528e-05
 2.484830862261e-03  8.482480574312e-04  4.383331071678e-05
 1.723297910974e-03  2.548067257212e-04  4.235442557069e-05
 8.211920142899e-04 -6.995795848952e-05  2.053216585537e-05
 1.753348031414e-11  2.943384528700e-11  1.791641328626e-12
-1.168331629184e-11  2.481339886528e-11  3.347551384372e-13
 1.291264960588e-11 -1.866052494371e-11  6.393308084069e-12
 1.582661840422e-10  1.159902022974e-10 -1.480570742799e-11
 1.421033053316e-10  1.052423412476e-10 -1.959237157047e-10
-6.933470853185e-12  1.364174891870e-10 -4.167533253001e-10
 4.049844385434e-03  2.021838620886e-11 -8.032712451987e-12
 4.727648612576e-03  2.695909528368e-11 -7.849392072892e-12
 5.280115954620e-03  3.591655636417e-11 -4.386954175560e-12
-3.911392176350e-04 -3.863548918745e-05  2.752300107767e-03
 1.782033266812e-05 -3.734421871792e-05  3.840683207801e-03
 3.256823882199e-04  1.076231805449e-05  4.451099189894e-03
 1.503762376695e-03 -1.275319872506e-04  9.116013924085e-03
 2.746919327618e-03 -8.888736493883e-05  9.742540636908e-03
 3.844618657001e-03 -1.730794424211e-05  8.576368047526e-03
 4.439560979732e-03 -1.117174016826e-04  3.773368266821e-03
 4.096393505560e-03 -9.298144249159e-05  2.475361225565e-03
 3.615947191111e-03 -6.689204959944e-05  1.842353141543e-03
 2.484897054307e-03 -4.556801673372e-05  8.493711885467e-04
 1.723330417933e-03 -4.378102416629e-05  2.556537629736e-04
 8.212060548462e-04 -2.114487243288e-05 -6.964024744438e-05
 1.696621200088e-11 -2.482554791711e-12  2.928345993816e-11
-1.184453830105e-11 -3.460896291607e-13  2.491294119740e-11
 1.242394694452e-11 -6.134629218763e-12 -1.850549231075e-11
 1.365888743596e-11 -9.220166357018e-11 -4.901320159973e-11
-2.872098869280e-11 -8.651315528567e-11 -5.347018556424e-11
-2.587854341721e-11 -1.291068042577e-11  2.577587347096e-11
-8.013593912084e-11  8.991267404066e-11  3.641374265314e-11
-9.445377658263e-11  1.025649189269e-10  7.696747049051e-11
-8.592457019973e-11  5.620827840025e-11  4.316686233819e-11
 1.598479584935e-10  1.372971621599e-11  1.155588797658e-10
 1.418330919417e-10  1.980614142909e-10  1.019209828791e-10
-7.486460173685e-12  4.169999440849e-10  1.337117815768e-10
 4.420017798092e-03  5.807478416815e-11  1.949164786947e-11
 2.765569140305e-03  6.452826944793e-11  3.252186022515e-11
 9.221912721569e-04  6.613071211220e-11  4.022607172578e-11
-3.908728568959e-04 -2.755582908390e-03 -4.139278981461e-05
 1.794240592160e-05 -3.847316050958e-03 -4.327672874252e-05
 3.254692298166e-04 -4.459229073967e-03  3.020335835817e-06
 1.503206404242e-03 -9.120391065080e-03 -1.322922088713e-04
 2.746079970595e-03 -9.742190878480e-03 -8.994431822694e-05
 3.843888139570e-03 -8.572099074945e-03 -1.541708840091e-05
 4.439329002504e-03 -3.772799313768e-03 -1.117367747506e-04
 4.096369544201e-03 -2.475794217152e-03 -9.358901518306e-05
 3.615974130843e-03 -1.842455443110e-03 -6.703863505365e-05
 2.484830872909e-03 -8.482480381511e-04 -4.383333023481e-05
 1.723297916725e-03 -2.548067194653e-04 -4.235443271572e-05
 8.211920167379e-04  6.995795729977e-05 -2.053216885348e-05
 1.753348044347e-11 -2.943384310609e-11 -1.791638561636e-12
-1.168331517614e-11 -2.481339862047e-11 -3.347541359028e-13
 1.291264929638e-11  1.866052517192e-11 -6.393307647017e-12
 1.361661391108e-11  5.019816948648e-11 -8.700916148017e-11
-2.926548574298e-11  5.532647368972e-11 -8.562976883480e-11
-2.623273400415e-11 -2.430965427974e-11 -1.291318070177e-11
-8.028753467721e-11 -3.624583469896e-11  9.030251325551e-11
-9.446823900345e-11 -7.754352149315e-11  1.030752754064e-10
-8.608613347495e-11 -4.357260663231e-11  5.603055500442e-11
 1.582661885146e-10 -1.159902034858e-10  1.480569429708e-11
 1.421033094561e-10 -1.052423434829e-10  1.959237093527e-10
-6.933469849422e-12 -1.364174920110e-10  4.167533247116e-10
-5.942246461901e-04  5.053279707450e-11  2.042206942370e-11
-7.327750730270e-04  3.370137811914e-11  4.183684985080e-12
-8.145228973838e-04  1.517749495260e-11 -1.976830812993e-12
-3.911392200236e-04  3.863550577921e-05 -2.752300132921e-03
 1.782033374962e-05  3.734426643693e-05 -3.840683248606e-03
 3.256823952003e-04 -1.076224094298e-05 -4.451099209576e-03
 1.503762378008e-03  1.275321093286e-04 -9.116013903589e-03
 2.746919332050e-03  8.888748815341e-05 -9.742540612989e-03
 3.844618664315e-03  1.730806191822e-05 -8.576368020632e-03
 4.439560991036e-03  1.117174814138e-04 -3.773368254410e-03
 4.096393513423e-03  9.298150115597e-05 -2.475361209853e-03
 3.615947194678e-03  6.689208795220e-05 -1.842353121118e-03
 2.484897052775e-03  4.556803684851e-05 -8.493711817125e-04
 1.723330416645e-03  4.378103638166e-05 -2.556537484879e-04
 8.212060529623e-04  2.114487741775e-05  6.964026144009e-05
 1.696621251801e-11  2.482555592775e-12 -2.928346161915e-11
-1.184453804001e-11  3.460890164746e-13 -2.491294333779e-11
 1.242394724181e-11  6.134629406250e-12  1.850549150528e-11
 1.365888890107e-11  9.220165842658e-11  4.901320542890e-11
-2.872098826778e-11  8.651315047122e-11  5.347019031603e-11
-2.587854482409e-11  1.291068383686e-11 -2.577587119626e-11
-8.013593571486e-11 -8.991267881165e-11 -3.641374889985e-11
-9.445377471866e-11 -1.025649182882e-10 -7.696747575780e-11
-8.592457247837e-11 -5.620827795085e-11 -4.316686244261e-11
 1.361661286385e-11 -5.019817105412e-11  8.700916752293e-11
-2.926548815913e-11 -5.532647783142e-11  8.562976965281e-11
-2.623273473964e-11  2.430965027573e-11  1.291317480042e-11
-8.028753452614e-11  3.624582810581e-11 -9.030251932545e-11
-9.446824132613e-11  7.754351913538e-11 -1.030752720267e-10
-8.608613809901e-11  4.357260679621e-11 -5.603054976580e-11
 2.713593827998e-03  1.980292191113e-04  1.146220969676e-05
 1.858174548906e-03  1.335391827098e-04  1.799204867641e-05
 8.786918213775e-04 -3.283725507325e-05  1.395114801875e-05
 9.460387778539e-04 -3.680066724563e-06  3.247537156322e-06
 1.888173660394e-03  6.919031000090e-05  8.331504320748e-06
 9.217183396083e-04 -1.321988570576e-05  7.385268220063e-06
 3.383958059946e-03  3.270354955189e-04  1.116327612276e-05
 3.321496229596e-03  6.658601845172e-04  2.537695905723e-05
 3.222883056421e-03  1.031023965831e-03  4.085874438244e-05
 1.802938608130e-03  1.940184591312e-04  3.035475104563e-05
 2.669113459449e-03  3.975074258808e-04  1.971978922477e-05
 2.594823056212e-03  6.115857421707e-04  3.067225164034e-05
 5.233924614743e-03  9.646957142240e-04  2.559930167537e-05
 4.565917568485e-03  1.231935695081e-03  3.621785449834e-05
 3.793922107112e-03  1.354325299495e-03  5.728101102208e-05
 4.021407221666e-03  4.418161476048e-04  1.473930531450e-05
 4.689209604394e-03  6.178528979111e-04  1.721416152432e-05
 3.932269964238e-03  8.899752679781e-04  3.234311593230e-05
 5.276329459563e-03  1.518101708086e-03  1.556623180225e-05
 5.142791630892e-03  3.042636006011e-03  3.865198199602e-05
 4.901579066891e-03  4.575024204620e-03  7.696650327254e-05
 4.366261488161e-03  1.853485186112e-03  6.311714479176e-05
 5.080621908427e-03  1.909284954201e-03  4.346422530848e-05
 4.820946582181e-03  2.847975971143e-03  7.033205811276e-05
 9.547340199371e-04  2.192507496847e-03  1.353285806289e-05
 2.750773509908e-03  4.753601666255e-03  4.137866462499e-05
 4.121334566332e-03  6.332739738692e-03  3.854431566696e-05
 4.396253440794e-03  2.077513935169e-03  2.168266564193e-05
 2.763448541553e-03  2.370330926776e-03  2.239422181462e-05
 4.303315727545e-03  4.176104705493e-03  3.682818359111e-05
-2.329817853580e-04  1.639344993358e-03  1.411434433400e-05
-1.098477921567e-04  3.275206927119e-03  3.256517756856e-05
 1.054904937185e-04  4.908939522065e-03  5.958943672320e-05
 2.748648206594e-03  7.195972986014e-03  5.259453978379e-05
 1.045870367657e-03  4.426115013830e-03  3.656403613114e-05
 1.214683896967e-03  6.721176657545e-03  6.076556848582e-05
-7.783151350018e-04  6.003437686419e-04  1.506819869501e-07
-5.424029393353e-04  1.873201616175e-03  1.692673694498e-05
-8.515322929406e-05  3.404749919608e-03  1.458244188243e-05
-5.475367561766e-04  1.176191697032e-03  1.105163500144e-05
-6.834014075202e-04  9.338279966752e-04  9.249360677785e-06
-3.820613783967e-04  2.324478500214e-03  1.766433181007e-05
-3.059097609007e-04  2.828362010334e-03  1.820947695440e-05
-6.971881295793e-04  1.228863424360e-03  1.155360295152e-05
-5.705937480788e-04  1.934944580878e-03  2.062892749833e-05
 4.032276362170e-11  1.482740017900e-11  3.328741139163e-11
 3.316607002545e-11  2.808006621456e-11 -3.678554899298e-11
 4.881545677073e-11 -3.839721763305e-11 -4.328160789271e-11
 3.216161557841e-04  4.194607644105e-03  1.800274167991e-03
-4.825810483579e-06  2.710721450954e-03  2.713912088155e-03
-4.166498504336e-04  9.806398028865e-04  2.403864596032e-03
-4.235055452989e-04  1.761014560280e-03  1.849429330077e-03
-3.933526615399e-04  2.368094686438e-03  1.060670575552e-03
 1.042541690592e-05  3.477637127533e-03  1.603846232835e-03
 4.529916860444e-04  5.971894720909e-03  2.513087238309e-03
 4.679601429095e-04  4.468198847052e-03  4.500405851301e-03
 4.432122880953e-04  2.358378361645e-03  5.938007361837e-03
 8.722383796233e-06  1.579187857648e-03  3.468228235628e-03
 3.196735641450e-04  3.295844805076e-03  3.175293606160e-03
 3.279026275664e-04  1.864792713946e-03  4.125225721614e-03
 3.853278282435e-03  7.750476582651e-03  3.281563312211e-03
 2.748888725391e-03  6.686419373609e-03  6.819164892753e-03
 1.483843398723e-03  3.350081370720e-03  8.305866092823e-03
 1.471580956563e-03  6.091761210499e-03  6.470543323419e-03
 1.478064222631e-03  8.111023307789e-03  3.715942913655e-03
 2.731216352183e-03  8.676291680917e-03  3.994196364592e-03
 4.492873090947e-03  5.478310506814e-03  2.341408869471e-03
 4.467912706312e-03  4.053898863618e-03  4.170868866173e-03
 4.489003980853e-03  2.117512624707e-03  5.509667269237e-03
 2.755887773987e-03  3.867867595897e-03  8.783318521574e-03
 3.869871518224e-03  5.999447917794e-03  5.830787403012e-03
 3.860321800589e-03  3.386948755715e-03  7.725869388358e-03
 3.619890448862e-03  1.623261134023e-03  6.947609371909e-04
 4.100212479608e-03  1.633667382523e-03  1.733957743997e-03
 4.439657144882e-03  1.310498071408e-03  3.470820660004e-03
 4.434956941594e-03  2.495832416747e-03  2.715151780163e-03
 4.428861007843e-03  3.386203276476e-03  1.573409542611e-03
 4.096945028326e-03  2.201255826692e-03  1.049305997193e-03
 3.088213044346e-03  1.244178393297e-03  5.516968162410e-04
 3.080595522661e-03  8.899009670055e-04  9.574723866689e-04
 3.084988527443e-03  4.474186771794e-04  1.267399059699e-03
 4.097598564040e-03  8.914464453964e-04  2.216957450367e-03
 3.617717302911e-03  1.193108897045e-03  1.184318069464e-03
 3.615162963421e-03  6.238130855335e-04  1.593870498549e-03
 8.190556766930e-04 -4.552114342637e-05 -5.818235633215e-06
 1.720604877865e-03  1.396372994870e-04  1.936038473602e-04
 2.485037945339e-03  2.422250156281e-04  7.482077915966e-04
 2.483912691810e-03  5.036572121156e-04  5.753043886995e-04
 2.482532755873e-03  7.210264432483e-04  3.369752030896e-04
 1.719755880304e-03  2.189817342214e-04  1.306489673311e-04
 1.723015256687e-03  4.906372165269e-05  2.301257230805e-04
 8.168777846430e-04 -3.484797563863e-05 -3.333467138190e-05
 8.169737663788e-04 -2.952924574493e-05 -5.420868848703e-05
 2.054501747426e-11 -1.723638949641e-11 -8.957667961413e-13
-3.391490621849e-12  1.020521783675e-11  6.224551630332e-12
 2.219944455311e-11 -1.069995073975e-11 -1.066363155850e-11
 2.713598487421e-03 -1.203704122631e-05  1.982561907945e-04
 1.858180126961e-03 -1.896771570061e-05  1.339234189107e-04
 8.787004207305e-04 -1.457742258266e-05 -3.263028823896e-05
 9.460436558558e-04 -3.521767668462e-06 -3.597946733734e-06
 1.888169505848e-03 -8.846023463528e-06  6.938707725292e-05
 9.217452946925e-04 -7.879635464949e-06 -1.306105284897e-05
 3.383953423842e-03 -1.157917606060e-05  3.271304735844e-04
 3.321489626911e-03 -2.602302982939e-05  6.661299265379e-04
 3.222927012858e-03 -4.158250242960e-05  1.031546385630e-03
 1.802958935366e-03 -3.162872690536e-05  1.945929292682e-04
 2.669099894782e-03 -2.080474688596e-05  3.979901212278e-04
 2.594852780865e-03 -3.214342795228e-05  6.123700132918e-04
 5.233924799449e-03 -2.568484270792e-05  9.649117227966e-04
 4.565946580178e-03 -3.594417142969e-05  1.231894468953e-03
 3.793907025114e-03 -5.711099886555e-05  1.354334357750e-03
 4.021393868936e-03 -1.473157907894e-05  4.418522864210e-04
 4.689199144855e-03 -1.702323346987e-05  6.178690562907e-04
 3.932236889875e-03 -3.233811479783e-05  8.899778350913e-04
 5.276351970280e-03 -1.602454810231e-05  1.518659634316e-03
 5.143020953701e-03 -3.988302013729e-05  3.043829364348e-03
 4.902045045750e-03 -7.868328171564e-05  4.577211127794e-03
 4.366305234250e-03 -6.261761537563e-05  1.853340432518e-03
 5.080710972170e-03 -4.352637799185e-05  1.909730983530e-03
 4.821145864530e-03 -7.046905685645e-05  2.848505774737e-03
 9.547770881645e-04 -1.173172854608e-05  2.191480256351e-03
 2.750775250178e-03 -4.041180240020e-05  4.753525120021e-03
 4.121651815311e-03 -4.001781394576e-05  6.335397265769e-03
 4.396246310526e-03 -2.210594518745e-05  2.078237238739e-03
 2.763424349961e-03 -2.191208426446e-05  2.370240536262e-03
 4.303485638436e-03 -3.767512696110e-05  4.177828678758e-03
-2.328191680545e-04 -1.117274658516e-05  1.637818033371e-03
-1.098283283644e-04 -2.756100195848e-05  3.272179008158e-03
 1.054672519664e-04 -5.337930537767e-05  4.904193899213e-03
 2.748946198021e-03 -5.150964438727e-05  7.196148059427e-03
 1.045909179812e-03 -3.351363986427e-05  4.423955250539e-03
 1.214856647853e-03 -5.661925547487e-05  6.718021773120e-03
-7.783292012237e-04  9.304491286657e-07  5.997138293516e-04
-5.422784989896e-04 -1.278340682288e-05  1.870107050763e-03
-8.496196189285e-05 -7.722522028444e-06  3.399042511258e-03
-5.474621827419e-04 -8.281521675578e-06  1.174324660931e-03
-6.833370687848e-04 -7.084824775670e-06  9.322556414573e-04
-3.820385262189e-04 -1.232468202582e-05  2.320880264139e-03
-3.058297263000e-04 -1.276208244200e-05  2.823649191089e-03
-6.971688705480e-04 -9.439876799478e-06  1.227323843615e-03
-5.706390310552e-04 -1.790925907961e-05  1.932556566710e-03
 4.016617178389e-11 -3.491935312432e-11  1.532933666571e-11
 3.324614247601e-11  3.593376585469e-11  2.627874007893e-11
 4.926318114768e-11  4.301855378584e-11 -3.854962372974e-11
 3.217764393173e-04 -1.793358524648e-03  4.182790128712e-03
-4.954210835448e-06 -2.710312423749e-03  2.701554813480e-03
-4.166241359136e-04 -2.403768861925e-03  9.770885025657e-04
-4.235978312396e-04 -1.847519483106e-03  1.756460922277e-03
-3.935878664424e-04 -1.058049486695e-03  2.363310174367e-03
 1.025178529507e-05 -1.598617682624e-03  3.468201512398e-03
 4.527919037687e-04 -2.506423207456e-03  5.961106210002e-03
 4.676574064699e-04 -4.495479310817e-03  4.457508040586e-03
 4.429625212135e-04 -5.937355509291e-03  2.349793530444e-03
 8.595960696751e-06 -3.468218439091e-03  1.571641286891e-03
 3.197259196148e-04 -3.170492253129e-03  3.284280973481e-03
 3.278193048318e-04 -4.125168681344e-03  1.855281991555e-03
 3.854453169521e-03 -3.282755817157e-03  7.754513446255e-03
 2.750009533148e-03 -6.818031098335e-03  6.685397945593e-03
 1.483930969190e-03 -8.306003822742e-03  3.344520179035e-03
 1.472188546703e-03 -6.467944515714e-03  6.085037081806e-03
 1.478897690587e-03 -3.711882126017e-03  8.104153357437e-03
 2.732571020181e-03 -3.993070886768e-03  8.675448569630e-03
 4.493664307992e-03 -2.342792318804e-03  5.482480836021e-03
 4.468412445700e-03 -4.171353366209e-03  4.057474316854e-03
 4.488964126941e-03 -5.508442775581e-03  2.120091946116e-03
 2.756208239395e-03 -8.782398404553e-03  3.866872552688e-03
 3.870773305123e-03 -5.830801141826e-03  6.002863213232e-03
 3.860508236966e-03 -7.724153091342e-03  3.389522331146e-03
 3.620000583500e-03 -6.944289830804e-04  1.623140904255e-03
 4.100462245112e-03 -1.733154104365e-03  1.632789383488e-03
 4.439778046399e-03 -3.470243880906e-03  1.310620356378e-03
 4.435339102299e-03 -2.714747538070e-03  2.496161065560e-03
 4.429301545483e-03 -1.573209919941e-03  3.386819339747e-03
 4.097188249688e-03 -1.048480221882e-03  2.200623561301e-03
 3.088259307080e-03 -5.527262300516e-04  1.245645692853e-03
 3.080663427698e-03 -9.583332219030e-04  8.913309812802e-04
 3.085033868343e-03 -1.267728794941e-03  4.485387363746e-04
 4.097734967022e-03 -2.216496689387e-03  8.905811247273e-04
 3.617818215211e-03 -1.183883810941e-03  1.192796788005e-03
 3.615224014468e-03 -1.593532013635e-03  6.234565486896e-04
 8.190744427262e-04  5.125472277557e-06 -4.468309519757e-05
 1.720615256718e-03 -1.947541562281e-04  1.415096549366e-04
 2.485037624862e-03 -7.486017303017e-04  2.441530237733e-04
 2.483959909958e-03 -5.765204455246e-04  5.058754175704e-04
 2.482609501773e-03 -3.385774150165e-04  7.231465452956e-04
 1.719772970580e-03 -1.320422232615e-04  2.207240133199e-04
 1.723018766536e-03 -2.306415482779e-04  5.073445590311e-05
 8.169394833580e-04  3.266774525871e-05 -3.391320407482e-05
 8.170350038077e-04  5.382816730399e-05 -2.871912689800e-05
 2.074902377097e-11  9.253531842953e-13 -1.735089956669e-11
-3.343762669324e-12 -6.176963870245e-12  1.035451383275e-11
 2.202916891917e-11  1.078812613104e-11 -1.091429622473e-11
 2.713593830447e-03 -1.980291998720e-04 -1.146221772201e-05
 1.858174551902e-03 -1.335391735126e-04 -1.799204978511e-05
 8.786918237389e-04  3.283725610744e-05 -1.395114687512e-05
 9.460387786802e-04  3.680069717866e-06 -3.247533235328e-06
 1.888173661918e-03 -6.919030027319e-05 -8.331503475855e-06
 9.217183412492e-04  1.321988798132e-05 -7.385265425155e-06
 3.383958063438e-03 -3.270354661159e-04 -1.116329145146e-05