# vtk DataFile Version 3.0
fsi_3d_tube_discr_3

ASCII

DATASET UNSTRUCTURED_GRID

POINTS 1360 float
 5.000000000000  0.500000000000  0.000000000000
 0.000000000000  0.500000000000  0.000000000000
 5.000000000000  0.000000000000  0.500000000000
 0.000000000000  0.000000000000  0.500000000000
 5.000000000000 -0.500000000000  0.000000000000
 0.000000000000 -0.500000000000  0.000000000000
 5.000000000000 -0.000000000000 -0.500000000000
 0.000000000000 -0.000000000000 -0.500000000000
 5.000000000000  0.600000000000  0.000000000000
 0.000000000000  0.600000000000  0.000000000000
 0.000000000000  0.000000000000  0.600000000000
 5.000000000000  0.000000000000  0.600000000000
 0.000000000000 -0.600000000000  0.000000000000
 5.000000000000 -0.600000000000  0.000000000000
 0.000000000000 -0.000000000000 -0.600000000000
 5.000000000000 -0.000000000000 -0.600000000000
 3.750000000000  0.500000000000  0.000000000000
 2.500000000000  0.500000000000  0.000000000000
 1.250000000000  0.500000000000  0.000000000000
 3.750000000000 -0.500000000000  0.000000000000
 2.500000000000 -0.500000000000  0.000000000000
 1.250000000000 -0.500000000000  0.000000000000
 3.750000000000 -0.000000000000 -0.500000000000
 2.500000000000 -0.000000000000 -0.500000000000
 1.250000000000 -0.000000000000 -0.500000000000
 3.750000000000  0.600000000000  0.000000000000
 2.500000000000  0.600000000000  0.000000000000
 1.250000000000  0.600000000000  0.000000000000
 1.250000000000  0.000000000000  0.600000000000
 2.500000000000  0.000000000000  0.600000000000
 3.750000000000  0.000000000000  0.600000000000
 3.750000000000  0.000000000000  0.500000000000
 2.500000000000  0.000000000000  0.500000000000
 1.250000000000  0.000000000000  0.500000000000
 1.250000000000 -0.600000000000  0.000000000000
 2.500000000000 -0.600000000000  0.000000000000
 3.750000000000 -0.600000000000  0.000000000000
 1.250000000000 -0.000000000000 -0.600000000000
 2.500000000000 -0.000000000000 -0.600000000000
 3.750000000000 -0.000000000000 -0.600000000000
 2.187500000000  0.000000000000  0.500000000000
 1.875000000000  0.000000000000  0.500000000000
 1.562500000000  0.000000000000  0.500000000000
 0.937500000000  0.000000000000  0.500000000000
 0.625000000000  0.000000000000  0.500000000000
 0.312500000000  0.000000000000  0.500000000000
 5.000000000000  0.461939766029  0.191341716729
 5.000000000000  0.353553389598  0.353553391588
 5.000000000000  0.191341715475  0.461939766549
 0.000000000000  0.461939766029  0.191341716729
 0.000000000000  0.353553389598  0.353553391588
 0.000000000000  0.191341715475  0.461939766549
 4.687500000000  0.500000000000  0.000000000000
 4.374999999999  0.500000000000  0.000000000000
 4.062500000000  0.500000000000  0.000000000000
 4.687500000000 -0.500000000000  0.000000000000
 4.374999999999 -0.500000000000  0.000000000000
 4.062500000000 -0.500000000000  0.000000000000
 3.437500000000 -0.500000000000  0.000000000000
 3.125000000001 -0.500000000000  0.000000000000
 2.812500000000 -0.500000000000  0.000000000000
 2.187500000000 -0.500000000000  0.000000000000
 1.875000000000 -0.500000000000  0.000000000000
 1.562500000000 -0.500000000000  0.000000000000
 0.937500000000 -0.500000000000  0.000000000000
 0.625000000000 -0.500000000000  0.000000000000
 0.312500000000 -0.500000000000  0.000000000000
 5.000000000000 -0.191341716729  0.461939766029
 5.000000000000 -0.353553391588  0.353553389598
 5.000000000000 -0.461939766549  0.191341715475
 0.000000000000 -0.191341716729  0.461939766029
 0.000000000000 -0.353553391588  0.353553389598
 0.000000000000 -0.461939766549  0.191341715475
 3.437500000000  0.500000000000  0.000000000000
 3.125000000001  0.500000000000  0.000000000000
 2.812500000000  0.500000000000  0.000000000000
 4.687500000000 -0.000000000000 -0.500000000000
 4.374999999999 -0.000000000000 -0.500000000000
 4.062500000000 -0.000000000000 -0.500000000000
 3.437500000000 -0.000000000000 -0.500000000000
 3.125000000001 -0.000000000000 -0.500000000000
 2.812500000000 -0.000000000000 -0.500000000000
 2.187500000000 -0.000000000000 -0.500000000000
 1.875000000000 -0.000000000000 -0.500000000000
 1.562500000000 -0.000000000000 -0.500000000000
 0.937500000000 -0.000000000000 -0.500000000000
 0.625000000000 -0.000000000000 -0.500000000000
 0.312500000000 -0.000000000000 -0.500000000000
 5.000000000000 -0.461939766029 -0.191341716729
 5.000000000000 -0.353553389598 -0.353553391588
 5.000000000000 -0.191341715475 -0.461939766549
 0.000000000000 -0.461939766029 -0.191341716729
 0.000000000000 -0.353553389598 -0.353553391588
 0.000000000000 -0.191341715475 -0.461939766549
 5.000000000000  0.191341716759 -0.461939766017
 5.000000000000  0.353553391451 -0.353553389736
 5.000000000000  0.461939766519 -0.191341715546
 0.000000000000  0.191341716759 -0.461939766017
 0.000000000000  0.353553391451 -0.353553389736
 0.000000000000  0.461939766519 -0.191341715546
 5.000000000000  0.525000000000  0.000000000000
 5.000000000000  0.550000000000  0.000000000000
 5.000000000000  0.575000000000  0.000000000000
 2.187500000000  0.500000000000  0.000000000000
 1.875000000000  0.500000000000  0.000000000000
 1.562500000000  0.500000000000  0.000000000000
 4.687500000000  0.600000000000  0.000000000000
 4.374999999999  0.600000000000  0.000000000000
 4.062500000000  0.600000000000  0.000000000000
 3.437500000000  0.600000000000  0.000000000000
 3.125000000001  0.600000000000  0.000000000000
 2.812500000000  0.600000000000  0.000000000000
 2.187500000000  0.600000000000  0.000000000000
 1.875000000000  0.600000000000  0.000000000000
 1.562500000000  0.600000000000  0.000000000000
 0.937500000000  0.600000000000  0.000000000000
 0.625000000000  0.600000000000  0.000000000000
 0.312500000000  0.600000000000  0.000000000000
 0.000000000000  0.575000000000  0.000000000000
 0.000000000000  0.550000000000  0.000000000000
 0.000000000000  0.525000000000  0.000000000000
 0.937500000000  0.500000000000  0.000000000000
 0.625000000000  0.500000000000  0.000000000000
 0.312500000000  0.500000000000  0.000000000000
 0.312500000000  0.000000000000  0.600000000000
 0.625000000000  0.000000000000  0.600000000000
 0.937500000000  0.000000000000  0.600000000000
 1.562500000000  0.000000000000  0.600000000000
 1.875000000000  0.000000000000  0.600000000000
 2.187500000000  0.000000000000  0.600000000000
 2.812500000000  0.000000000000  0.600000000000
 3.125000000000  0.000000000000  0.600000000000
 3.437500000000  0.000000000000  0.600000000000
 4.062500000000  0.000000000000  0.600000000000
 4.375000000000  0.000000000000  0.600000000000
 4.687499999999  0.000000000000  0.600000000000
 5.000000000000  0.000000000000  0.575000000000
 5.000000000000  0.000000000000  0.550000000000
 5.000000000000  0.000000000000  0.525000000000
 0.000000000000  0.000000000000  0.525000000000
 0.000000000000  0.000000000000  0.550000000000
 0.000000000000  0.000000000000  0.575000000000
 0.000000000000  0.554327719246  0.229610060049
 0.000000000000  0.424264067521  0.424264069903
 0.000000000000  0.229610058567  0.554327719860
 5.000000000000  0.554327719246  0.229610060049
 5.000000000000  0.424264067521  0.424264069903
 5.000000000000  0.229610058567  0.554327719860
 4.687500000000  0.000000000000  0.500000000000
 4.374999999999  0.000000000000  0.500000000000
 4.062500000000  0.000000000000  0.500000000000
 0.312500000000 -0.600000000000  0.000000000000
 0.625000000000 -0.600000000000  0.000000000000
 0.937500000000 -0.600000000000  0.000000000000
 1.562500000000 -0.600000000000  0.000000000000
 1.875000000000 -0.600000000000  0.000000000000
 2.187500000000 -0.600000000000  0.000000000000
 2.812500000000 -0.600000000000  0.000000000000
 3.125000000000 -0.600000000000  0.000000000000
 3.437500000000 -0.600000000000  0.000000000000
 4.062500000000 -0.600000000000  0.000000000000
 4.375000000000 -0.600000000000  0.000000000000
 4.687499999999 -0.600000000000  0.000000000000
 5.000000000000 -0.575000000000  0.000000000000
 5.000000000000 -0.550000000000  0.000000000000
 5.000000000000 -0.525000000000  0.000000000000
 0.000000000000 -0.525000000000  0.000000000000
 0.000000000000 -0.550000000000  0.000000000000
 0.000000000000 -0.575000000000  0.000000000000
 0.000000000000 -0.229610060049  0.554327719246
 0.000000000000 -0.424264069903  0.424264067521
 0.000000000000 -0.554327719860  0.229610058567
 5.000000000000 -0.229610060049  0.554327719246
 5.000000000000 -0.424264069903  0.424264067521
 5.000000000000 -0.554327719860  0.229610058567
 3.437500000000  0.000000000000  0.500000000000
 3.125000000001  0.000000000000  0.500000000000
 2.812500000000  0.000000000000  0.500000000000
 0.312500000000 -0.000000000000 -0.600000000000
 0.625000000000 -0.000000000000 -0.600000000000
 0.937500000000 -0.000000000000 -0.600000000000
 1.562500000000 -0.000000000000 -0.600000000000
 1.875000000000 -0.000000000000 -0.600000000000
 2.187500000000 -0.000000000000 -0.600000000000
 2.812500000000 -0.000000000000 -0.600000000000
 3.125000000000 -0.000000000000 -0.600000000000
 3.437500000000 -0.000000000000 -0.600000000000
 4.062500000000 -0.000000000000 -0.600000000000
 4.375000000000 -0.000000000000 -0.600000000000
 4.687499999999 -0.000000000000 -0.600000000000
 5.000000000000 -0.000000000000 -0.575000000000
 5.000000000000 -0.000000000000 -0.550000000000
 5.000000000000 -0.000000000000 -0.525000000000
 0.000000000000 -0.000000000000 -0.525000000000
 0.000000000000 -0.000000000000 -0.550000000000
 0.000000000000 -0.000000000000 -0.575000000000
 0.000000000000 -0.554327719246 -0.229610060049
 0.000000000000 -0.424264067521 -0.424264069903
 0.000000000000 -0.229610058567 -0.554327719860
 5.000000000000 -0.554327719246 -0.229610060049
 5.000000000000 -0.424264067521 -0.424264069903
 5.000000000000 -0.229610058567 -0.554327719860
 0.000000000000  0.229610060110 -0.554327719220
 0.000000000000  0.424264069737 -0.424264067687
 0.000000000000  0.554327719863 -0.229610058559
 5.000000000000  0.229610060110 -0.554327719220
[...]
POINT_DATA 1360

VECTORS Displacement float
 0.000000000000e+00  0.000000000000e+00  0.000000000000e+00
 0.000000000000e+00  0.000000000000e+00  0.000000000000e+00
 0.000000000000e+00  0.000000000000e+00  0.000000000000e+00
 0.000000000000e+00  0.000000000000e+00  0.000000000000e+00
 0.000000000000e+00  0.000000000000e+00  0.000000000000e+00
 0.000000000000e+00  0.000000000000e+00  0.000000000000e+00
 0.000000000000e+00  0.000000000000e+00  0.000000000000e+00
 0.000000000000e+00  0.000000000000e+00  0.000000000000e+00
 0.000000000000e+00  0.000000000000e+00  0.000000000000e+00
 0.000000000000e+00  0.000000000000e+00  0.000000000000e+00
 0.000000000000e+00  0.000000000000e+00  0.000000000000e+00
 0.000000000000e+00  0.000000000000e+00  0.000000000000e+00
 0.000000000000e+00  0.000000000000e+00  0.000000000000e+00
 0.000000000000e+00  0.000000000000e+00  0.000000000000e+00
 0.000000000000e+00  0.000000000000e+00  0.000000000000e+00
 0.000000000000e+00  0.000000000000e+00  0.000000000000e+00
 4.323795290884e-04  6.530527365848e-03  1.137551384266e-04
 4.513984700203e-03  6.114966913920e-03  1.484313212634e-04
 3.089946479725e-03  1.436182339049e-03  5.464449733394e-05
 4.323795224863e-04 -6.530527208398e-03 -1.137550220972e-04
 4.513984700647e-03 -6.114966821480e-03 -1.484313221252e-04
 3.089946494835e-03 -1.436182304128e-03 -5.464452912072e-05
 4.323466143966e-04  1.068727159052e-04 -6.524083463863e-03
 4.514726869523e-03  1.499932728862e-04 -6.118668838389e-03
 3.089910259215e-03  5.564759909624e-05 -1.436885669364e-03
 1.453718988295e-03  6.061189628264e-03  2.866343019621e-06
 3.649549381518e-03  5.585753345077e-03  7.812928700691e-05
 2.931668182772e-03  1.214694113019e-03  7.568231865903e-05
 2.931955952410e-03 -7.597110247594e-05  1.215365459352e-03
 3.648934348490e-03 -7.921779172680e-05  5.589519301237e-03
 1.454601154450e-03  1.004846478804e-06  6.054880372836e-03
 4.323466089302e-04 -1.068726094077e-04  6.524083478012e-03
 4.514726860455e-03 -1.499931731823e-04  6.118668863557e-03
 3.089910261262e-03 -5.564757128998e-05  1.436885679860e-03
 2.931668202100e-03 -1.214694077712e-03 -7.568233296559e-05
 3.649549400728e-03 -5.585753251590e-03 -7.812927041009e-05
 1.453718978821e-03 -6.061189475558e-03 -2.866274358854e-06
 2.931955956036e-03  7.597112857458e-05 -1.215365449396e-03
 3.648934364333e-03  7.921788799496e-05 -5.589519275583e-03
 1.454601154526e-03 -1.004724944189e-06 -6.054880358826e-03
 4.439560929332e-03 -1.117174960932e-04  3.773368212930e-03
 4.096393552493e-03 -9.298147783148e-05  2.475361205303e-03
 3.615947133761e-03 -6.689201317392e-05  1.842353095314e-03
 2.484897019047e-03 -4.556803345702e-05  8.493712673221e-04
 1.723330449027e-03 -4.378101252978e-05  2.556537194176e-04
 8.212060444045e-04 -2.114491069995e-05 -6.964029233018e-05
 0.000000000000e+00  0.000000000000e+00  0.000000000000e+00
 0.000000000000e+00  0.000000000000e+00  0.000000000000e+00
 0.000000000000e+00  0.000000000000e+00  0.000000000000e+00
 0.000000000000e+00  0.000000000000e+00  0.000000000000e+00
 0.000000000000e+00  0.000000000000e+00  0.000000000000e+00
 0.000000000000e+00  0.000000000000e+00  0.000000000000e+00
-3.908727711585e-04  2.755583234764e-03  4.139286169092e-05
 1.794228786307e-05  3.847316116041e-03  4.327697854390e-05
 3.254692286607e-04  4.459229145727e-03 -3.020501956579e-06
-3.908727754148e-04 -2.755583187999e-03 -4.139286085065e-05
 1.794227906151e-05 -3.847316012961e-03 -4.327695664331e-05
 3.254692183000e-04 -4.459229002187e-03  3.020575858030e-06
 1.503206527443e-03 -9.120391233475e-03 -1.322921789030e-04
 2.746079873272e-03 -9.742190839439e-03 -8.994440757991e-05
 3.843888273172e-03 -8.572099240503e-03 -1.541667472785e-05
 4.439328951693e-03 -3.772799262392e-03 -1.117368687605e-04
 4.096369591001e-03 -2.475794197843e-03 -9.358904747401e-05
 3.615974073433e-03 -1.842455395785e-03 -6.703859758141e-05
 2.484830836870e-03 -8.482481166308e-04 -4.383334770605e-05
 1.723297947698e-03 -2.548066764719e-04 -4.235442086517e-05
 8.211920060368e-04  6.995800145236e-05 -2.053220776684e-05
 0.000000000000e+00  0.000000000000e+00  0.000000000000e+00
 0.000000000000e+00  0.000000000000e+00  0.000000000000e+00
 0.000000000000e+00  0.000000000000e+00  0.000000000000e+00
 0.000000000000e+00  0.000000000000e+00  0.000000000000e+00
 0.000000000000e+00  0.000000000000e+00  0.000000000000e+00
 0.000000000000e+00  0.000000000000e+00  0.000000000000e+00
 1.503206530032e-03  9.120391387405e-03  1.322922981034e-04
 2.746079869624e-03  9.742190979220e-03  8.994449386262e-05
 3.843888266306e-03  8.572099363456e-03  1.541671599461e-05
-3.911391392636e-04  3.863557859806e-05 -2.752300411136e-03
 1.782020647778e-05  3.734449139211e-05 -3.840683207143e-03
 3.256823856410e-04 -1.076248643557e-05 -4.451099132462e-03
 1.503762501553e-03  1.275320802021e-04 -9.116014075135e-03
 2.746919234701e-03  8.888757468410e-05 -9.742540575527e-03
 3.844618797213e-03  1.730764994811e-05 -8.576368186583e-03
 4.439560940636e-03  1.117175758245e-04 -3.773368200519e-03
 4.096393560355e-03  9.298153649586e-05 -2.475361189591e-03
 3.615947137327e-03  6.689205152667e-05 -1.842353074889e-03
 2.484897017515e-03  4.556805357181e-05 -8.493712604879e-04
 1.723330447739e-03  4.378102474515e-05 -2.556537049320e-04
 8.212060425205e-04  2.114491568482e-05  6.964030632588e-05
 0.000000000000e+00  0.000000000000e+00  0.000000000000e+00
 0.000000000000e+00  0.000000000000e+00  0.000000000000e+00
 0.000000000000e+00  0.000000000000e+00  0.000000000000e+00
 0.000000000000e+00  0.000000000000e+00  0.000000000000e+00
 0.000000000000e+00  0.000000000000e+00  0.000000000000e+00
 0.000000000000e+00  0.000000000000e+00  0.000000000000e+00
 0.000000000000e+00  0.000000000000e+00  0.000000000000e+00
 0.000000000000e+00  0.000000000000e+00  0.000000000000e+00
 0.000000000000e+00  0.000000000000e+00  0.000000000000e+00
 0.000000000000e+00  0.000000000000e+00  0.000000000000e+00
 0.000000000000e+00  0.000000000000e+00  0.000000000000e+00
 0.000000000000e+00  0.000000000000e+00  0.000000000000e+00
 0.000000000000e+00  0.000000000000e+00  0.000000000000e+00
 0.000000000000e+00  0.000000000000e+00  0.000000000000e+00
 0.000000000000e+00  0.000000000000e+00  0.000000000000e+00
 4.439328940722e-03  3.772799320206e-03  1.117368429881e-04
 4.096369573733e-03  2.475794245260e-03  9.358901152835e-05
 3.615974055642e-03  1.842455439864e-03  6.703856020303e-05
 1.869238697497e-04  2.499918359657e-03  3.185255095601e-06
 2.264983837210e-04  3.569993746305e-03 -8.698391414083e-08
 6.321943813622e-04  4.119159096422e-03  6.991625154233e-05
 1.978133522104e-03  8.471142007762e-03  9.869869174889e-05
 2.645931309567e-03  9.049482901221e-03  1.046476170338e-04
 3.249497272359e-03  7.932820183872e-03  1.009644434179e-04
 3.904213905161e-03  3.434263888383e-03  1.064067419793e-04
 3.813887260886e-03  2.223249105092e-03  9.574288068815e-05
 3.474398276033e-03  1.619103028149e-03  6.628043764723e-05
 2.297050945295e-03  6.849595118083e-04  4.697841132872e-05
 1.571015468111e-03  1.292499459319e-04  4.563465370289e-05
 7.875985043225e-04 -1.945543062720e-04  1.402157318332e-05
 0.000000000000e+00  0.000000000000e+00  0.000000000000e+00
 0.000000000000e+00  0.000000000000e+00  0.000000000000e+00
 0.000000000000e+00  0.000000000000e+00  0.000000000000e+00
 2.484830826223e-03  8.482481359109e-04  4.383332818803e-05
 1.723297941947e-03  2.548066827278e-04  4.235441372014e-05
 8.211920035887e-04 -6.995800264211e-05  2.053220476871e-05
 7.874662658087e-04 -1.430018598937e-05 -1.942034475545e-04
 1.570916290492e-03 -4.644923528646e-05  1.300898730078e-04
 2.297102476645e-03 -4.797015024320e-05  6.860411519742e-04
 3.474578375393e-03 -6.617755257532e-05  1.618989191410e-03
 3.813829544294e-03 -9.534580909588e-05  2.222867361326e-03
 3.903845934335e-03 -1.063983703029e-04  3.434865842952e-03
 3.250974427409e-03 -1.022006598026e-04  7.936858087597e-03
 2.648127263962e-03 -1.041007121135e-04  9.049766089516e-03
 1.979797445256e-03 -9.580605645716e-05  8.466973096349e-03
 6.322352279571e-04 -6.552800270485e-05  4.111160021012e-03
 2.255843078438e-04  3.521422626941e-06  3.563540907791e-03
 1.856818490777e-04 -1.811737660970e-06  2.496693398999e-03
 0.000000000000e+00  0.000000000000e+00  0.000000000000e+00
 0.000000000000e+00  0.000000000000e+00  0.000000000000e+00
 0.000000000000e+00  0.000000000000e+00  0.000000000000e+00
 0.000000000000e+00  0.000000000000e+00  0.000000000000e+00
 0.000000000000e+00  0.000000000000e+00  0.000000000000e+00
 0.000000000000e+00  0.000000000000e+00  0.000000000000e+00
 0.000000000000e+00  0.000000000000e+00  0.000000000000e+00
 0.000000000000e+00  0.000000000000e+00  0.000000000000e+00
 0.000000000000e+00  0.000000000000e+00  0.000000000000e+00
 0.000000000000e+00  0.000000000000e+00  0.000000000000e+00
 0.000000000000e+00  0.000000000000e+00  0.000000000000e+00
 0.000000000000e+00  0.000000000000e+00  0.000000000000e+00
-3.911391368750e-04 -3.863556200631e-05  2.752300385982e-03
 1.782020539627e-05 -3.734444367311e-05  3.840683166338e-03
 3.256823786606e-04  1.076256354706e-05  4.451099112780e-03
 7.875985081370e-04  1.945543056034e-04 -1.402157106531e-05
 1.571015477522e-03 -1.292499393475e-04 -4.563465379249e-05
 2.297050960419e-03 -6.849594920227e-04 -4.697842081043e-05
 3.474398295580e-03 -1.619102984178e-03 -6.628045821044e-05
 3.813887280198e-03 -2.223249057459e-03 -9.574289948806e-05
 3.904213923354e-03 -3.434263829766e-03 -1.064067508389e-04
 3.249497285739e-03 -7.932820060956e-03 -1.009644035059e-04
 2.645931317063e-03 -9.049482761694e-03 -1.046475487966e-04
 1.978133522398e-03 -8.471141856080e-03 -9.869860649326e-05
 6.321943638535e-04 -4.119158954687e-03 -6.991620787211e-05
 2.264983597239e-04 -3.569993643481e-03  8.699064907798e-08
 1.869238482015e-04 -2.499918312977e-03 -3.185260834857e-06
 0.000000000000e+00  0.000000000000e+00  0.000000000000e+00
 0.000000000000e+00  0.000000000000e+00  0.000000000000e+00
 0.000000000000e+00  0.000000000000e+00  0.000000000000e+00
 0.000000000000e+00  0.000000000000e+00  0.000000000000e+00
 0.000000000000e+00  0.000000000000e+00  0.000000000000e+00
 0.000000000000e+00  0.000000000000e+00  0.000000000000e+00
 0.000000000000e+00  0.000000000000e+00  0.000000000000e+00
 0.000000000000e+00  0.000000000000e+00  0.000000000000e+00
 0.000000000000e+00  0.000000000000e+00  0.000000000000e+00
 0.000000000000e+00  0.000000000000e+00  0.000000000000e+00
 0.000000000000e+00  0.000000000000e+00  0.000000000000e+00
 0.000000000000e+00  0.000000000000e+00  0.000000000000e+00
 1.503762500240e-03 -1.275319581241e-04  9.116014095631e-03
 2.746919230269e-03 -8.888745146951e-05  9.742540599446e-03
 3.844618789899e-03 -1.730753227197e-05  8.576368213476e-03
 7.874662667441e-04  1.430018880521e-05  1.942034614112e-04
 1.570916287806e-03  4.644924501605e-05 -1.300898589042e-04
 2.297102473559e-03  4.797016792135e-05 -6.860411455577e-04
 3.474578378413e-03  6.617759004220e-05 -1.618989171957e-03
 3.813829550264e-03  9.534586590397e-05 -2.222867345173e-03
 3.903845946438e-03  1.063984472257e-04 -3.434865829323e-03
 3.250974434981e-03  1.022007745182e-04 -7.936858059063e-03
 2.648127267428e-03  1.041008361946e-04 -9.049766065439e-03
 1.979797446089e-03  9.580618576086e-05 -8.466973075910e-03
 6.322352223532e-04  6.552809433446e-05 -4.111160038665e-03
 2.255843062887e-04 -3.521362060664e-06 -3.563540946190e-03
 1.856818546910e-04  1.811763276567e-06 -2.496693422316e-03
 0.000000000000e+00  0.000000000000e+00  0.000000000000e+00
 0.000000000000e+00  0.000000000000e+00  0.000000000000e+00
 0.000000000000e+00  0.000000000000e+00  0.000000000000e+00
 0.000000000000e+00  0.000000000000e+00  0.000000000000e+00
 0.000000000000e+00  0.000000000000e+00  0.000000000000e+00
 0.000000000000e+00  0.000000000000e+00  0.000000000000e+00
 0.000000000000e+00  0.000000000000e+00  0.000000000000e+00
 0.000000000000e+00  0.000000000000e+00  0.000000000000e+00
 0.000000000000e+00  0.000000000000e+00  0.000000000000e+00
 0.000000000000e+00  0.000000000000e+00  0.000000000000e+00
 0.000000000000e+00  0.000000000000e+00  0.000000000000e+00
 0.000000000000e+00  0.000000000000e+00  0.000000000000e+00
 0.000000000000e+00  0.000000000000e+00  0.000000000000e+00
 0.000000000000e+00  0.000000000000e+00  0.000000000000e+00
 0.000000000000e+00  0.000000000000e+00  0.000000000000e+00
 0.000000000000e+00  0.000000000000e+00  0.000000000000e+00
 0.000000000000e+00  0.000000000000e+00  0.000000000000e+00
 0.000000000000e+00  0.000000000000e+00  0.000000000000e+00
-2.491482774626e-04  2.672930143591e-03  2.126388109361e-05
 1.355738674554e-04  3.685227234237e-03  1.014363589941e-05
 5.692104966249e-04  4.179506742719e-03  6.014355645455e-05
 4.389147913521e-05  2.546844210259e-03  1.113510583831e-05
-9.971894571711e-05  2.603936163874e-03  1.773780647991e-05
 1.834743350424e-04  3.622615409892e-03  5.164884095900e-06
 6.959847202713e-04  6.378226348558e-03  8.688897407084e-05
 9.473651515691e-04  6.251520407489e-03  6.127935145844e-05
 1.196649536104e-03  6.146936452029e-03  3.422155627004e-05
 7.662672697671e-05  3.759839455686e-03  2.801271808976e-05
 4.074346730736e-04  4.347337252120e-03  2.128928924951e-05
 4.900734056950e-04  4.254801528262e-03  4.247745593015e-05
 1.623957164875e-03  8.914601245302e-03  9.969198991261e-05
 2.700029190393e-03  9.343709682036e-03  9.088186417821e-05
 3.394510682771e-03  8.066061723440e-03  8.984261638551e-05
 1.861767494356e-03  8.598372245199e-03  9.550506343031e-05
 1.744337933438e-03  8.744935355909e-03  9.568101361798e-05
 2.673310373514e-03  9.186621435934e-03  9.576156898648e-05
 4.290876053157e-03  5.955196389198e-03  1.251857040785e-04
 4.075487871774e-03  5.815805026004e-03  1.065024034392e-04
 3.863252047542e-03  5.693596222493e-03  9.124593176998e-05
 2.722210435665e-03  9.527809722611e-03  9.329873717114e-05
 3.691151802834e-03  8.379182568262e-03  4.282639779712e-05
 3.541717168326e-03  8.211460808552e-03  6.739573438318e-05
 4.299554726168e-03  3.662700410772e-03  9.935873726770e-05
 3.950036920172e-03  2.328834024525e-03  8.960298403309e-05
 3.509957072259e-03  1.671851722928e-03  6.332525985720e-05
 4.033612142369e-03  3.497875114612e-03  1.016243268504e-04
 4.165279947132e-03  3.573206665058e-03  9.936103716433e-05
 3.880818416120e-03  2.272874043323e-03  9.127609237332e-05
 3.050342751595e-03  1.374869931576e-03  5.650503557026e-05
 3.011171516630e-03  1.318154333222e-03  6.019686210908e-05
 2.971838404186e-03  1.265071588370e-03  6.634683305499e-05
 4.022187361737e-03  2.396511827280e-03  9.243030109929e-05
 3.580089368555e-03  1.778342327101e-03  6.614202641739e-05
 3.544636347768e-03  1.721781361340e-03  6.484430736532e-05
 2.434126631458e-03  8.037467902843e-04  3.758725109555e-05
 1.646507957824e-03  1.886912372212e-04  4.398062566345e-05
 7.982195359103e-04 -1.681557826820e-04  1.363779541760e-05
 2.342194824870e-03  7.217098774587e-04  4.264142510111e-05
 2.387741560153e-03  7.611042133394e-04  3.978745216180e-05
 1.608419777112e-03  1.580437233656e-04  4.438059119839e-05
 1.684864258745e-03  2.197763962107e-04  4.367125861959e-05
 8.116291372966e-04 -1.044346308084e-04  1.833392473968e-05
 8.038409222876e-04 -1.368833367744e-04  1.611578289796e-05
 6.158765651112e-04  1.584861732822e-03  3.865795823557e-03
 2.542620738969e-04  2.495821822631e-03  2.524248267605e-03
 2.251046967816e-04  2.186678580328e-03  9.579314523008e-04
 2.611556442109e-04  9.651538781185e-04  2.134595732263e-03
 2.300559931188e-04  1.481879527650e-03  3.216393707740e-03
 2.620740508151e-04  1.657359779473e-03  1.613644427542e-03
 1.399158861002e-03  2.199233570954e-03  5.504003748177e-03
 1.384116550465e-03  4.119097253816e-03  4.211097942214e-03
 1.395811081717e-03  5.525291692864e-03  2.354958854240e-03
 2.833111366892e-04  3.210668047057e-03  1.493935215330e-03
 5.881015048169e-04  2.894884332672e-03  3.070888432086e-03
 6.100858524366e-04  3.809859567763e-03  1.789125750863e-03
 3.263442367194e-03  2.936078278669e-03  7.261162898203e-03
 2.649971789091e-03  6.172037256580e-03  6.308917917482e-03
 1.965263003952e-03  7.655700986912e-03  3.279995581597e-03
 1.993987691920e-03  3.385330660252e-03  7.551886199370e-03
 2.664810325553e-03  3.636136580669e-03  8.129300394462e-03
 1.974739923110e-03  5.921758841626e-03  5.725338487003e-03
 3.644501906420e-03  1.998332252392e-03  5.052654326552e-03
 3.649931669901e-03  3.719050545811e-03  3.830507956514e-03
 3.677661129554e-03  5.034308678194e-03  2.184307482958e-03
 2.641104974728e-03  8.010405080825e-03  3.781215757222e-03
 3.258376418262e-03  5.256118905896e-03  5.678424286297e-03
 3.255872442210e-03  6.999444715228e-03  3.334632933467e-03
 3.478856121132e-03  5.171459993337e-04  1.429032166573e-03
 3.801466206219e-03  1.431134637815e-03  1.541549005154e-03
 3.903531052687e-03  3.125455428588e-03  1.394061788483e-03
 3.902006387140e-03  1.303082968936e-03  3.090688959002e-03
 3.807553935022e-03  8.072344581543e-04  1.975671312003e-03
 3.909237787713e-03  2.363461191665e-03  2.368497423671e-03
 2.952253180135e-03  4.045167642162e-04  1.070110991578e-03
 2.955008082617e-03  7.396796229944e-04  8.161133332367e-04
 2.955014911739e-03  1.047341143243e-03  5.076501539206e-04
 3.802527942420e-03  1.946000034552e-03  9.816578020319e-04
 3.470400552385e-03  9.484306243703e-04  1.118727545421e-03
 3.468862803613e-03  1.361518569727e-03  7.032567639718e-04
 7.990391684332e-04 -7.976439197112e-05 -1.618245733179e-04
 1.581765879159e-03  3.844639610511e-05  1.007531294376e-04
 2.298810333411e-03  5.778908075277e-04  2.837324224014e-04
 2.297399778108e-03  2.103826691377e-04  5.806505141093e-04
 1.578834381062e-03 -4.958955764929e-06  1.103297709552e-04
 2.301366440190e-03  4.027634986476e-04  4.471765299676e-04
 1.576773792700e-03  9.604189699134e-05  8.821727626731e-05
 7.995612561327e-04 -1.274663819511e-04 -1.157942804888e-04
 7.953093240988e-04 -1.588034224333e-04 -5.752511997098e-05
 0.000000000000e+00  0.000000000000e+00  0.000000000000e+00
 0.000000000000e+00  0.000000000000e+00  0.000000000000e+00
 0.000000000000e+00  0.000000000000e+00  0.000000000000e+00
 0.000000000000e+00  0.000000000000e+00  0.000000000000e+00
 0.000000000000e+00  0.000000000000e+00  0.000000000000e+00
 0.000000000000e+00  0.000000000000e+00  0.000000000000e+00
 0.000000000000e+00  0.000000000000e+00  0.000000000000e+00
 0.000000000000e+00  0.000000000000e+00  0.000000000000e+00
 0.000000000000e+00  0.000000000000e+00  0.000000000000e+00
 3.216160020712e-04  4.194607384210e-03  1.800274353953e-03
-4.825842482648e-06  2.710721378180e-03  2.713912092629e-03
-4.166498304850e-04  9.806394826920e-04  2.403864591972e-03
-4.235055610377e-04  1.761014657825e-03  1.849429377235e-03
-3.933526690654e-04  2.368094591106e-03  1.060670584369e-03
 1.042546191716e-05  3.477637148830e-03  1.603846182791e-03
 4.529915269344e-04  5.971895364157e-03  2.513087733040e-03
 4.679599893864e-04  4.468199127823e-03  4.500405981222e-03
 4.432121372676e-04  2.358378641070e-03  5.938007837044e-03
 8.722382369832e-06  1.579188026186e-03  3.468228092732e-03
 3.196735730228e-04  3.295844703487e-03  3.175293587265e-03
 3.279026136637e-04  1.864792600110e-03  4.125225659894e-03
 3.853278163468e-03  7.750476265272e-03  3.281563700088e-03
 2.748888589321e-03  6.686419048063e-03  6.819164832105e-03
 1.483843431770e-03  3.350081009611e-03  8.305865898334e-03
 1.471581094286e-03  6.091761383646e-03  6.470543450476e-03
 1.478064305428e-03  8.111023221876e-03  3.715942846831e-03
 2.731216247515e-03  8.676291595063e-03  3.994196305860e-03
 4.492873184781e-03  5.478310460357e-03  2.341409061417e-03
 4.467912707468e-03  4.053898804851e-03  4.170868859768e-03
 4.489004135205e-03  2.117512882619e-03  5.509667144803e-03
 2.755887670703e-03  3.867867673666e-03  8.783318312100e-03
 3.869871520925e-03  5.999448081737e-03  5.830787417552e-03
 3.860321722230e-03  3.386948542082e-03  7.725869436912e-03
 3.619890381937e-03  1.623261044992e-03  6.947608643426e-04