# vtk DataFile Version 3.0
fsi_3d_tube_discr_1

ASCII

DATASET UNSTRUCTURED_GRID

POINTS 1680 float
 1.249999999998  0.000000000000  0.000000000000
 0.000000000000  0.500000000000  0.000000000000
 0.000000000000  0.000000000000  0.000000000000
 0.000000000000  0.000000000000  0.500000000000
 0.937499999998  0.125000000000  0.000000000000
 0.624999999999  0.250000000000  0.000000000000
 0.312499999999  0.375000000000  0.000000000000
 0.000000000000  0.375000000000  0.000000000000
 0.000000000000  0.250000000001  0.000000000000
 0.000000000000  0.125000000000  0.000000000000
 0.937499999998  0.000000000000  0.000000000000
 0.624999999999  0.000000000000  0.000000000000
 0.312500000000  0.000000000000  0.000000000000
 0.937499999998  0.000000000000  0.125000000000
 0.624999999999  0.000000000000  0.250000000000
 0.312499999999  0.000000000000  0.375000000000
 0.000000000000  0.461939766029  0.191341716729
 0.000000000000  0.353553389598  0.353553391588
 0.000000000000  0.191341715475  0.461939766549
 0.000000000000  0.000000000000  0.125000000000
 0.000000000000  0.000000000000  0.250000000001
 0.000000000000  0.000000000000  0.375000000000
 0.312500000000  0.125000000000  0.000000000000
 0.312499999999  0.250000000000  0.000000000000
 0.624999999999  0.125000000000  0.000000000000
 0.000000000000  0.184059205137  0.319358231172
 0.000000000000  0.319358230414  0.184059206262
 0.000000000000  0.163320370377  0.163320370820
 0.625072486725  0.164397200385  0.164255889875
 0.312951843232  0.317360894787  0.179992444743
 0.312617833190  0.187567994304  0.313801782529
 0.624999999999  0.000000000000  0.125000000000
 0.312499999999  0.000000000000  0.250000000000
 0.312500000000  0.000000000000  0.125000000000
 0.311398667314  0.165235496387  0.164244399044
 1.249999999998  0.000000000000  0.000000000000
 1.250000000000  0.500000000000  0.000000000000
 0.000000000000  0.500000000000  0.000000000000
 1.250000000000  0.000000000000  0.500000000000
 1.249999999998  0.125000000000  0.000000000000
 1.249999999999  0.250000000000  0.000000000000
 1.249999999999  0.375000000000  0.000000000000
 0.937500000000  0.500000000000  0.000000000000
 0.625000000000  0.500000000000  0.000000000000
 0.312500000000  0.500000000000  0.000000000000
 0.937499999998  0.125000000000  0.000000000000
 0.624999999999  0.250000000000  0.000000000000
 0.312499999999  0.375000000000  0.000000000000
 1.249999999998  0.000000000000  0.125000000000
 1.249999999999  0.000000000000  0.250000000000
 1.249999999999  0.000000000000  0.375000000000
 1.250000000000  0.461939766256  0.191341716183
 1.250000000000  0.353553390593  0.353553390593
 1.250000000000  0.191341716183  0.461939766256
 0.312500000000  0.461939766256  0.191341716183
 0.625000000000  0.353553390593  0.353553390593
 0.937500000000  0.191341716183  0.461939766256
 0.624999999999  0.375000000000  0.000000000000
 0.937499999999  0.375000000000  0.000000000000
 0.937499999999  0.250000000000  0.000000000000
 0.937500000000  0.343803760014  0.363041284981
 0.937499999971  0.454121047592  0.209222546907
 0.625000000000  0.454121047653  0.209222546774
 1.249763848095  0.163905584782  0.164965699919
 1.249050308777  0.314973082817  0.183129139262
 1.250509590860  0.182306442237  0.316119115807
 0.938047266901  0.163148219433  0.162796199192
 0.937821982990  0.179497764182  0.315300430985
 0.625999330681  0.314561662369  0.183656919628
 0.937628870117  0.314184009497  0.187146044521
 0.000000000000  0.000000000000  0.500000000000
 1.250000000000  0.000000000000  0.500000000000
 1.249999999998  0.000000000000  0.000000000000
 0.000000000000  0.500000000000  0.000000000000
 0.312500000000  0.000000000000  0.500000000000
 0.625000000000  0.000000000000  0.500000000000
 0.937500000000  0.000000000000  0.500000000000
 1.249999999999  0.000000000000  0.375000000000
 1.249999999999  0.000000000000  0.250000000000
 1.249999999998  0.000000000000  0.125000000000
 0.312499999999  0.000000000000  0.375000000000
 0.624999999999  0.000000000000  0.250000000000
 0.937499999998  0.000000000000  0.125000000000
 0.000000000000  0.191341715475  0.461939766549
 0.000000000000  0.353553389598  0.353553391588
 0.000000000000  0.461939766029  0.191341716729
 0.937500000000  0.191341716183  0.461939766256
 0.625000000000  0.353553390593  0.353553390593
 0.312500000000  0.461939766256  0.191341716183
 0.937499999998  0.125000000000  0.000000000000
 0.624999999999  0.250000000000  0.000000000000
 0.312499999999  0.375000000000  0.000000000000
 0.937499999999  0.000000000000  0.250000000000
 0.937499999999  0.000000000000  0.375000000000
 0.624999999999  0.000000000000  0.375000000000
 0.625999330681  0.314561662369  0.183656919628
 0.937821982990  0.179497764182  0.315300430985
 0.938047266901  0.163148219433  0.162796199192
 0.312500000000  0.209222545799  0.454121048102
 0.624999999999  0.209222546148  0.454121047941
 0.312499999988  0.363041284273  0.343803760761
 0.312617833190  0.187567994304  0.313801782529
 0.312951843232  0.317360894787  0.179992444743
 0.625072486725  0.164397200385  0.164255889875
 0.624562189737  0.185731063907  0.314785051736
 2.499999999996  0.000000000000  0.000000000000
 1.250000000000  0.500000000000  0.000000000000
 1.249999999998  0.000000000000  0.000000000000
 1.250000000000  0.000000000000  0.500000000000
 2.187499999997  0.125000000000  0.000000000000
 1.874999999998  0.250000000000  0.000000000000
 1.562499999999  0.375000000000  0.000000000000
 1.249999999999  0.375000000000  0.000000000000
 1.249999999999  0.250000000000  0.000000000000
 1.249999999998  0.125000000000  0.000000000000
 2.187499999997  0.000000000000  0.000000000000
 1.874999999997  0.000000000000  0.000000000000
 1.562499999997  0.000000000000  0.000000000000
 2.187499999997  0.000000000000  0.125000000000
 1.874999999998  0.000000000000  0.250000000000
 1.562499999999  0.000000000000  0.375000000000
 1.250000000000  0.461939766256  0.191341716183
 1.250000000000  0.353553390593  0.353553390593
 1.250000000000  0.191341716183  0.461939766256
 1.249999999998  0.000000000000  0.125000000000
 1.249999999999  0.000000000000  0.250000000000
 1.249999999999  0.000000000000  0.375000000000
 1.562499999998  0.125000000000  0.000000000000
 1.562499999999  0.250000000000  0.000000000000
 1.874999999998  0.125000000000  0.000000000000
 1.250509590860  0.182306442237  0.316119115807
 1.249050308777  0.314973082817  0.183129139262
 1.249763848095  0.163905584782  0.164965699919
 1.875299481583  0.164538206531  0.164454048621
 1.562636110576  0.317607564304  0.179775037093
 1.562406402534  0.187495194987  0.314057640945
 1.874999999998  0.000000000000  0.125000000000
 1.562499999999  0.000000000000  0.250000000000
 1.562499999998  0.000000000000  0.125000000000
 1.562325582053  0.165722716427  0.164676739659
 2.499999999996  0.000000000000  0.000000000000
 2.500000000000  0.500000000000  0.000000000000
 1.250000000000  0.500000000000  0.000000000000
 2.500000000000  0.000000000000  0.500000000000
 2.499999999997  0.125000000000  0.000000000000
 2.499999999998  0.250000000000  0.000000000000
 2.499999999999  0.375000000000  0.000000000000
 2.187500000000  0.500000000000  0.000000000000
 1.875000000000  0.500000000000  0.000000000000
 1.562500000000  0.500000000000  0.000000000000
 2.187499999997  0.125000000000  0.000000000000
 1.874999999998  0.250000000000  0.000000000000
 1.562499999999  0.375000000000  0.000000000000
 2.499999999997  0.000000000000  0.125000000000
 2.499999999998  0.000000000000  0.250000000000
 2.499999999999  0.000000000000  0.375000000000
 2.500000000000  0.461939766256  0.191341716183
 2.500000000000  0.353553390593  0.353553390593
 2.500000000000  0.191341716183  0.461939766256
 1.562500000000  0.461939766256  0.191341716183
 1.875000000000  0.353553390593  0.353553390593
 2.187500000000  0.191341716183  0.461939766256
 1.874999999999  0.375000000000  0.000000000000
 2.187499999999  0.375000000000  0.000000000000
 2.187499999998  0.250000000000  0.000000000000
 2.187500000000  0.343803760014  0.363041284981
 2.187500000023  0.454121047592  0.209222546907
 1.875000000000  0.454121047653  0.209222546774
 2.499782777321  0.163909136910  0.164964488388
 2.499062809728  0.314976971804  0.183130923975
 2.500531486942  0.182313641926  0.316124112795
 2.188141678728  0.163221021881  0.162842704523
 2.187878758667  0.179525941829  0.315341920135
 1.876050504419  0.314634257735  0.183685746441
 2.187662667879  0.314215378926  0.187147000538
 1.250000000000  0.000000000000  0.500000000000
 2.500000000000  0.000000000000  0.500000000000
 2.499999999996  0.000000000000  0.000000000000
 1.250000000000  0.500000000000  0.000000000000
 1.562500000000  0.000000000000  0.500000000000
 1.875000000000  0.000000000000  0.500000000000
 2.187500000000  0.000000000000  0.500000000000
 2.499999999999  0.000000000000  0.375000000000
 2.499999999998  0.000000000000  0.250000000000
 2.499999999997  0.000000000000  0.125000000000
 1.562499999999  0.000000000000  0.375000000000
 1.874999999998  0.000000000000  0.250000000000
 2.187499999997  0.000000000000  0.125000000000
 1.250000000000  0.191341716183  0.461939766256
 1.250000000000  0.353553390593  0.353553390593
 1.250000000000  0.461939766256  0.191341716183
 2.187500000000  0.191341716183  0.461939766256
 1.875000000000  0.353553390593  0.353553390593
 1.562500000000  0.461939766256  0.191341716183
 2.187499999997  0.125000000000  0.000000000000
 1.874999999998  0.250000000000  0.000000000000
 1.562499999999  0.375000000000  0.000000000000
 2.187499999998  0.000000000000  0.250000000000
 2.187499999999  0.000000000000  0.375000000000
 1.874999999999  0.000000000000  0.375000000000
 1.876050504419  0.314634257735  0.183685746441
 2.187878758667  0.179525941829  0.315341920135
 2.188141678728  0.163221021881  0.162842704523
 1.562499999921  0.209222546462  0.454121047797
 1.875000000000  0.209222546389  0.454121047830
 1.562500000000  0.363041284715  0.343803760295
[...]
POINT_DATA 1680

VECTORS Velocity float
 3.728017265792e+00  4.336614675612e-02  1.231028777015e-01
-7.204174147049e-01 -2.168753559912e-02  9.530869570066e-03
-2.240607104486e+00  1.045483031576e-01  1.207302923130e-01
-7.232322333574e-01  3.420459792406e-02 -1.439695636542e-03
-3.102327308411e+00  1.280505515918e-01 -9.245906732262e-03
-1.319277188571e+00  2.311318118701e-01  5.069235824368e-02
-2.138655227592e+00  1.667969551458e-01  1.291518603138e-01
-1.237841537910e+00 -1.186955083308e+00 -2.448087845260e-03
-1.991214113900e+00 -5.608778928133e-01  2.803786916665e-02
-2.094563567627e+00 -2.105783502981e-01  1.508478371868e-02
 1.571792479836e+00 -7.655513464717e-02 -8.659060846067e-02
 6.683911094361e-01 -4.598886401532e-04 -4.050881323207e-03
-3.740657204218e-01  2.943825589203e-02  3.048007449430e-02
-2.899344183639e+00 -1.416567141880e-02  7.727359756979e-02
-1.210018147999e+00 -4.450230166836e-02  2.189904555720e-01
-2.155264825366e+00 -4.320469744558e-02  1.844793675728e-01
-6.268609730779e-01  4.675280718780e-02  2.842086629505e-02
-6.525425600843e-01  4.016985521214e-02  2.700929470658e-02
-6.299870146051e-01  5.658094715459e-02  6.609101458855e-02
-2.128255638091e+00  2.157615571182e-02 -1.948527797321e-01
-2.058763410222e+00  3.433781254627e-03 -5.847622817101e-01
-1.234777397275e+00 -2.686055882033e-02 -1.257507939382e+00
-1.748716038083e+00  4.662810078643e-02  3.644126258498e-05
-9.048298384213e-01 -2.661805209672e-04 -2.555145548676e-02
-2.186214049292e+00  9.818989326664e-02  1.560365995224e-03
-1.758449749893e+00 -3.490430852128e-01 -7.645548955144e-01
-1.802071745718e+00 -7.385136296388e-01 -3.315656587911e-01
-1.784415614042e+00 -2.954947166837e-01 -3.286676196556e-01
-1.247882358714e+00  1.452185981325e-01  1.497705804259e-01
-2.167799317826e+00  1.554778625986e-01  1.110728224613e-01
-2.127517887745e+00  1.068056538381e-01  1.261981731770e-01
-2.223588060524e+00  3.405941090233e-02  1.409576878027e-01
-9.599142302350e-01  3.445904633600e-02  4.620024327092e-03
-1.736024190677e+00  7.509689051214e-03  4.421789859718e-02
-1.000436044007e+00  5.611025811878e-03  1.033535064895e-02
 5.203484746103e+00  2.363511587023e-01  2.301658380415e-01
 7.650849887060e-01  1.167766905933e+00  1.121964956567e-01
 4.641033758986e-01  8.462313554172e-02 -3.082272907738e-02
 7.758731397819e-01 -9.642960819498e-02  1.171957701220e+00
-3.942412109188e+00 -2.637789299269e-03  6.933807600964e-02
-2.960699884775e+00  2.923714904109e-01  7.760714128436e-02
-3.348285248171e+00  7.365591399424e-01  6.277062033739e-04
 6.387716978553e-01  5.635482091230e-01  7.197753231098e-02
 4.224988930988e-01  9.017412416746e-02  5.216533631180e-02
-1.022678250912e-02 -5.488067129230e-02  2.775673402976e-02
-3.338451267548e+00  1.896916495774e-01 -3.950547439181e-02
-1.183689836432e+00  2.241393414557e-01  7.794459202622e-02
-2.474187908660e+00  2.627401536997e-01  1.549200619104e-01
-4.138181180639e+00  1.033096026766e-02  3.660290873411e-02
-3.230637704869e+00 -1.009591861133e-01  2.994801402697e-01
-3.356962489748e+00 -7.567466272875e-02  6.481812836334e-01
 8.343880074167e-01  1.056162498631e+00  5.219701523187e-01
 8.003690454971e-01  7.555927363446e-01  8.662799779896e-01
 8.245889973640e-01  3.535166485497e-01  1.101862792399e+00
-5.626700045249e-02 -8.583090995494e-02  2.403202708908e-02
 3.914693938484e-01 -3.494903670544e-04  8.741807134028e-02
 6.167915412584e-01  1.260613557268e-01  5.175527658629e-01
-1.788980791132e+00  1.067374217766e-01 -4.359998582984e-02
-2.391143337752e+00  6.202649616775e-01 -1.615848771637e-02
-1.718776589109e+00  3.710749476208e-01 -8.128641537246e-03
 6.379903614169e-01  3.306845507914e-01  4.273888526645e-01
 6.352161170905e-01  4.784819503908e-01  2.821092882136e-01
 4.783013166137e-01  3.036677957791e-02  6.357087496121e-02
-3.041317736192e+00  8.026080198068e-02  1.137244146542e-01
-3.452984174497e+00  6.145739603187e-01  3.012434099959e-01
-3.317944568417e+00  2.924807062037e-01  5.116131415518e-01
-1.714888122111e+00  2.727898061618e-01  2.542183200445e-01
-2.446192949861e+00  3.409013992881e-01  5.929627811237e-01
-1.697620651051e+00  6.669443729488e-02  3.502128211340e-02
-2.342738898751e+00  5.440948385150e-01  3.607622459289e-01
-1.351115579471e-01  2.112376717704e-02  3.788460808711e-02
 7.608774102250e-01 -1.334953617286e-01  1.116235633287e+00
 5.192211224563e+00  1.236165883750e-02  1.952710559417e-01
-9.893152184477e-02  1.354390988675e-02 -9.698830145341e-03
 9.527318247086e-02 -3.367194386227e-02 -6.902915572634e-02
 4.200814350743e-01 -4.679610139540e-02  5.643719147515e-02
 6.562379905291e-01 -6.271198218126e-02  5.731132639430e-01
-3.605592591338e+00 -4.863545135222e-02  6.885375997370e-01
-3.494533518674e+00 -7.146873770844e-02  3.042220876647e-01
-4.463154709481e+00  2.868628561926e-02  1.723659245518e-03
-2.231348836126e+00 -3.322086405574e-02  2.521511972758e-01
-1.082142592865e+00 -3.594864776905e-02  1.694203523562e-01
-3.076517784162e+00 -7.501210157161e-03  1.416770053779e-01
-1.363606659408e-01  4.349143679530e-02  3.137208773183e-02
-1.716497711644e-01  2.077673922409e-02  1.444392934783e-02
-1.271298213459e-01  1.503776635412e-02  2.001746870076e-02
 6.293026386069e-01  1.181261190299e-01  5.241279829481e-01
 3.974756918586e-01 -2.211743305790e-02  8.513036354429e-02
 5.407707095766e-02 -7.767726028531e-02 -1.349147189899e-03
-3.272492075728e+00  1.970439117162e-01 -2.619491803602e-02
-1.203049787764e+00  1.915199455597e-01  5.279326303268e-02
-2.268343920312e+00  2.047694023948e-01  1.504028901058e-01
-1.572624358497e+00 -1.037620155384e-02  3.863384967858e-01
-2.339069832214e+00  2.028169902695e-02  6.588870142118e-01
-1.888442800900e+00  8.694956849665e-03  1.205415406079e-01
-1.787159503605e+00  8.296594262806e-02  4.123923835175e-02
-2.392488120258e+00  3.099088955587e-01  5.869144641068e-01
-1.664219905643e+00  2.443368579453e-01  2.601623433389e-01
 8.430165113038e-02 -7.598366420622e-02 -7.417648252043e-02
 4.301594579653e-01 -3.170329589112e-02  6.592455855583e-02
 8.273402082401e-02 -5.752640537436e-02 -5.559773239422e-02
-2.196301265824e+00  1.127086472638e-01  1.462758689364e-01
-2.233848186251e+00  1.744574857312e-01  1.208977566264e-01
-1.139027552222e+00  1.242520285232e-01  1.317373939020e-01
-1.739302643648e+00  3.593176678505e-02  1.004613275955e-01
 5.184090682621e+00 -3.099799714507e-01 -2.170238429459e-01
 5.134199393688e-01  1.267204332973e+00  7.359031185487e-02
 2.644058216110e+00  1.480112605079e-01  1.310357969233e-01
 4.974696738572e-01 -9.667746627816e-02  1.256604202817e+00
-1.134098848257e+01  6.071037451240e-01  4.788333265411e-03
-6.945545866485e+00  1.103342674771e+00  1.032117484651e-01
-5.172214893017e+00  1.258348969398e+00  1.192158734550e-01
-2.841822309054e+00  6.805967689702e-01  1.416155614563e-02
-2.836234482287e+00  2.935393244832e-01  9.926326192822e-02
-3.403472143795e+00  7.090850639039e-02  9.140222506087e-02
-5.324988467846e+00 -3.345356233464e-01 -3.566499732426e-01
-6.054883484502e+00 -1.295380822885e-02 -9.191452203701e-03
-3.046472875972e+00  7.498821070373e-02  9.578067327913e-02
-1.114419449767e+01  7.072698626890e-02  5.426230184997e-01
-6.808225583670e+00 -1.403895891178e-01  1.103891704801e+00
-5.172785262252e+00 -7.817205155047e-02  1.303281996882e+00
 6.140625835339e-01  1.102681430713e+00  5.404753532490e-01
 5.775782741182e-01  8.324079713351e-01  9.102652324838e-01
 6.425468230764e-01  4.069182325191e-01  1.167892061348e+00
-3.606484536945e+00  2.580342384706e-02  9.660718894448e-02
-3.066341037107e+00 -1.838615385991e-02  2.848195047406e-01
-2.837735470901e+00 -4.364288735461e-02  5.950221559974e-01
-4.940761414831e+00  5.249520124410e-01 -1.464513140751e-02
-4.691622813266e+00  8.750269483122e-01 -3.965188882238e-02
-7.593638175881e+00  4.688389293464e-01 -2.857404566382e-02
-2.907500677103e+00  2.707637908307e-01  4.734932882067e-01
-3.028731057838e+00  5.844043549202e-01  2.750742353720e-01
-2.919521331593e+00  9.764991586869e-02  1.199467602986e-01
-6.853388721419e+00  6.663723213682e-01  6.592493028171e-01
-4.994649283008e+00  1.011879879529e+00  5.661400542392e-01
-4.983241558202e+00  5.509509444843e-01  9.844326494447e-01
-7.659516823057e+00  7.929550999446e-02  5.101437859903e-01
-4.708500018405e+00  6.444266530339e-02  8.685581272821e-01
-4.936372320284e+00  3.098617183187e-02  5.157556780338e-01
-4.734158066805e+00  5.759145149052e-01  6.089523383062e-01
 9.760605536911e+00 -7.533969406838e-02  3.096805864459e-01
-6.940705584005e-01  1.756023618620e+00  2.168109415323e-01
 1.562737085999e+00  1.038262627059e+00  1.037080534554e-01
-7.259881926554e-01 -1.646014564018e-01  1.779361217620e+00
-1.475040302925e+01 -4.147704240436e-02  1.643903177197e-01
-1.076775812130e+01  6.009128334054e-01  7.247837579254e-02
-1.333047654244e+01  1.338691697770e+00  4.488040693990e-02
-1.423729877677e-01  1.830527483661e+00  1.250531281043e-01
 3.555761969238e-01  1.944249200508e+00  1.136296614019e-01
 5.890664693371e-01  1.785427556612e+00  9.515560161640e-02
-1.214052437129e+01  9.033585890761e-01 -4.724637872754e-02
-6.883306235923e+00  8.131162189724e-01  7.963086046183e-02
-5.692340066329e+00  1.356048727180e+00  1.377903529800e-01
-1.486436843320e+01 -1.641903220905e-01  6.104679301295e-02
-1.098980176552e+01 -4.723509717530e-02  5.961746053911e-01
-1.330858910969e+01 -6.513694142126e-02  1.288990078102e+00
-6.542044481168e-01  1.632082517518e+00  7.353926440446e-01
-7.456233410205e-01  1.152887256832e+00  1.247826728609e+00
-6.892007570823e-01  4.905962346652e-01  1.638381975158e+00
 5.374771566390e-01  1.595736860948e+00  7.711772926017e-01
 2.826713716685e-01  1.219507768500e+00  1.425619505598e+00
-2.259588118859e-01  5.928290449096e-01  1.680643056428e+00
-8.043101713916e+00  1.397217735552e+00 -9.126361638747e-02
-1.106262877101e+01  1.526206313555e+00  4.860644650808e-03
-8.467897482037e+00  1.062681880970e+00  3.175418782269e-03
-2.122500907930e-01  1.143378619290e+00  1.332266327231e+00
-1.796351208065e-01  1.606180450008e+00  8.161568787834e-01
 4.202614868862e-01  1.648796219593e+00  8.365118118579e-01
-1.055788932893e+01  3.355883178297e-01  3.299748433738e-01
-1.312562237176e+01  1.148610057270e+00  5.800946335448e-01
-1.302333272797e+01  6.592182540597e-01  9.869495720623e-01
-8.528364759120e+00  6.533740020106e-01  6.902612116586e-01
-1.104672948122e+01  7.267171438125e-01  1.387213869063e+00
-7.957418486228e+00  1.104408862345e+00  6.320455069193e-01
-1.112386709110e+01  1.323330453200e+00  8.267458737490e-01
 8.199938422810e-01 -9.513344308238e-02  1.124902020876e+00
-2.906188460842e-01 -2.126541546356e-01  1.720620481828e+00
 8.309282471491e+00 -4.052519758550e-01 -1.909037594242e-01
 8.919705434935e-01  1.140923141719e+00  7.683519762953e-02
 6.619159872420e-01 -8.611051760325e-02  1.786137602644e+00
 3.697840975268e-01 -1.009525134514e-01  1.892638993099e+00
-1.811754804685e-01 -1.281549662899e-01  1.833454377525e+00
-1.375087104009e+01 -6.849857340592e-02  1.264607418749e+00
-1.124606736484e+01 -2.815097206840e-02  6.918658504384e-01
-1.569964575939e+01 -1.536901814402e-02  1.968824781997e-01
-5.262891646804e+00 -7.179000752487e-02  1.324429180917e+00
-6.771277188642e+00 -1.016576695140e-01  9.123462247359e-01
-1.138150506137e+01  5.030538395190e-02  8.021178830975e-01
 9.821619958867e-01  3.782390498059e-01  1.044481747159e+00
 9.293669157761e-01  7.372280150019e-01  8.360589490538e-01
 9.991938419267e-01  9.622890360493e-01  5.279853284336e-01
-2.302856344569e-01  5.600813994891e-01  1.682906491286e+00
 3.062169822941e-01  1.186425052384e+00  1.376893430299e+00
 5.993532729677e-01  1.602979555801e+00  7.402875071288e-01
-1.161996065895e+01  8.924483042607e-01 -6.757033292631e-03
-6.886380305812e+00  9.016543795853e-01  9.924394495765e-02
-5.343753028640e+00  1.268304759448e+00  1.080140440984e-01
-8.314110013741e+00 -1.905134180250e-02  1.022787308706e+00
-1.094943246059e+01 -1.272564757412e-02  1.562188307814e+00
-8.252328026817e+00  4.786284887523e-02  1.434533459292e+00
-8.138642642506e+00  1.113688041667e+00  6.458487370580e-01
-1.094734034344e+01  7.228154563362e-01  1.376795260399e+00
-8.422242912550e+00  6.013044855933e-01  6.669737375891e-01
 6.893471202421e-01  5.925787510499e-01  1.593759600975e+00
 3.716221705660e-01  6.540105595329e-01  1.717904359335e+00
 6.831490374835e-01  1.191550212964e+00  1.216943056314e+00
-5.039478610429e+00  5.550269250762e-01  1.010046831364e+00
-5.055431270649e+00  1.051868203004e+00  5.723872437315e-01
-6.764481148596e+00  6.012256580705e-01  5.996566840127e-01
-8.219811734213e+00  7.066545950696e-01  1.182343076093e+00
 1.317152734464e+01 -1.275913818233e-01  3.094974353185e-01
-2.879592928004e+00  1.973139470945e+00  2.180414092557e-01
-1.363255232113e-01  3.108087502626e-01  3.478855794405e-01
-2.859116862045e+00 -1.963233025954e-01  2.077541504190e+00
-2.624119233790e+01  9.622886369502e-01  3.138504962564e-01
-1.835124258362e+01  2.348963339463e+00  3.045824258818e-02
-1.469678130629e+01  1.623617633135e+00  1.908847422786e-02
-1.263884872174e+01  1.277471764144e+00  1.008588359492e-01
-1.103533446303e+01  4.703461845135e-01  1.930973460586e-01
-1.231165014072e+01 -3.673197409068e-02  3.570003711161e-01
-1.253223652836e+01 -9.804232605884e-01 -9.614411932354e-01
-1.402247613983e+01  1.453153920137e-01  1.514293741856e-01
-9.004894180537e+00  2.447813328766e-01  2.527217125142e-01
-2.564364045623e+01 -6.431242471030e-02  7.816243182206e-01
-1.805595339269e+01 -1.882830806899e-01  2.357071808617e+00
-1.475366671840e+01  5.808790062828e-03  1.625335013005e+00
-2.918392200957e+00  1.917306462747e+00  8.075522631484e-01
-3.029938192412e+00  1.371757871475e+00  1.409997071868e+00
-2.901649008093e+00  5.774711770257e-01  1.832707972529e+00
-1.246647517181e+01 -3.686828263996e-02  3.064783744325e-02
-1.122354438049e+01  8.309506468506e-02  4.832785935037e-01
-1.265682049165e+01 -1.769904996148e-02  1.253102581519e+00
-1.499975982643e+01  9.395519090266e-01 -2.593741774867e-02
-1.334126822574e+01  1.415937371481e+00 -4.665022743763e-02
-1.960312438862e+01  8.742623205530e-01  1.701892043998e-02
-1.245763184837e+01  5.871838835653e-01  9.358196917855e-01
-1.250485927355e+01  1.069753571408e+00  5.192904469896e-01
-1.084646849709e+01  2.669653217942e-01  2.551449816892e-01
-1.788617959274e+01  1.445584250157e+00  1.480794722644e+00
-1.447972240530e+01  1.392377293905e+00  7.449323178225e-01
-1.441685901269e+01  7.965442787401e-01  1.291009299190e+00
-1.974443689660e+01  1.655398339322e-01  9.372790702463e-01
-1.340227932070e+01  8.051786694973e-02  1.427105690229e+00
-1.498707594610e+01  1.564555797864e-02  9.257521236191e-01
-1.351362033410e+01  9.243996454861e-01  9.572196860355e-01
 1.066816878072e+01  7.671022657229e-01  1.008619105112e+00
-1.258365084231e+00  1.755031941056e+00 -1.075652918787e-01
 7.747199178265e-01  2.213860739729e+00  1.945971313408e-01
-1.658738678388e+00  1.298266766275e-01  1.772525211356e+00
-3.254683647965e+01 -1.846997757103e-01  3.010591963088e-02
-2.489386081046e+01  2.658964826945e-01  8.289065801012e-02
-3.215042234339e+01  1.452734424978e+00 -2.534207147827e-02
-7.352480289741e-01  4.203071184701e+00  4.563183760413e-02
-4.645117095574e-02  3.662917288680e+00  6.325268158993e-02
-6.125592557312e-01  2.204092810161e+00  1.259532850724e-02
-2.841553406850e+01  2.048045818012e+00  2.024599579734e-01
-1.788880466531e+01  1.813474647029e+00  1.117371857601e-01
-1.551927171849e+01  1.499572426207e+00  7.999935728971e-02
-3.268918889817e+01 -1.649413935593e-02  1.545817381852e-01
-2.503807173877e+01  5.193872173273e-02  1.370472948475e-01
-3.175086451711e+01 -1.011470736315e-01  1.137946061440e+00
-1.300109231216e+00  1.631481805866e+00  6.546215262770e-01
-1.608111535860e+00  1.298092785532e+00  1.235931256256e+00
-1.576193943047e+00  7.319712050080e-01  1.581522864053e+00
-7.337024532700e-01  1.955931112489e+00  1.014907078002e+00
-1.319798932532e-03  2.537403816160e+00  2.604433433825e+00
-6.593203796952e-01  1.522041792705e+00  3.711049377194e+00
-1.991662843689e+01  3.017540991142e+00 -8.796285043260e-02
-2.681449763015e+01  3.452056671283e+00  7.047089681856e-02
-2.065658605948e+01  1.844502694184e+00  3.863826400169e-02
-5.285086842654e-01  2.724754775516e+00  2.908147046748e+00
-5.806795774452e-01  3.618165033182e+00  1.693083260230e+00
-2.095858766193e-02  3.233526156786e+00  1.575430971747e+00
-2.469270605819e+01 -1.786565011616e-02 -1.109694430751e-02
-3.179463758136e+01  1.210336028673e+00  5.131686079388e-01
-3.152411714729e+01  5.100337429029e-01  8.890057503740e-01
-2.061297187960e+01  1.270850774820e+00  1.142720279628e+00
-2.695637870392e+01  1.695466867362e+00  3.044668348223e+00
-1.984119417148e+01  2.405274339587e+00  1.475672331265e+00
-2.696179206358e+01  2.916912484782e+00  1.771456651716e+00
-7.595265521906e-01 -1.340517338749e-01  2.129843631790e+00
-8.615384078333e-01  4.980131191507e-02  1.614388523727e+00
 1.455220905362e+01 -2.345196161252e-01  8.097356356416e-01
-7.139696823947e-01  1.962451810811e+00  2.688006360166e-01
-4.252629392608e-01 -1.057706243740e-01  2.248422994822e+00
-1.581810701941e-01 -1.688362006264e-01  3.605601608186e+00
-6.194862966502e-01 -4.482495559770e-02  4.193248593712e+00
-3.297413117598e+01 -7.384014755682e-02  1.203132334162e+00
-2.521586272376e+01 -6.210163441871e-02  1.196139378785e-01
-3.432880791908e+01  3.239104445938e-01  1.614510476823e-01
-1.514136162265e+01 -9.855583458767e-03  1.602040304189e+00
-1.760624734286e+01 -1.134554447345e-01  1.922255958729e+00
-2.652359248520e+01 -1.464975720026e-01  1.511043742909e+00
-8.356090359225e-01  5.882248452935e-01  1.735718970642e+00
-9.015145793168e-01  1.245091348634e+00  1.338982080649e+00
-8.006190724853e-01  1.740286750576e+00  8.036993875323e-01
-2.599331208237e-01  1.411901567477e+00  3.719536838023e+00
-6.736731528848e-02  2.474041846839e+00  2.600150458250e+00
-4.910613441193e-01  2.060495719573e+00  9.709690668942e-01
-2.724774178963e+01  1.810077842620e+00  1.954886754637e-01
-1.790256011486e+01  1.938840083268e+00  7.094590238835e-02
-1.517222884404e+01  1.567449933668e+00  3.042699681377e-02
-2.071999943719e+01 -1.101960350446e-01  1.865104878779e+00
-2.648224684545e+01 -5.756437272320e-02  3.548690021695e+00
-1.998887840241e+01  2.164132128291e-02  3.006230279321e+00
-1.993595792502e+01  2.373577883596e+00  1.477853919697e+00
-2.669974538521e+01  1.656243147436e+00  3.037994343710e+00
-2.067140246966e+01  1.176674428936e+00  1.150877130757e+00
-4.205720144578e-01  9.210083406057e-01  2.072521703058e+00
-7.820976173921e-05  1.438861372746e+00  3.275790985256e+00
-4.218096964620e-01  1.632655530798e+00  1.663047188616e+00
-1.492556509235e+01  8.017809994241e-01  1.314964106137e+00
-1.500037894600e+01  1.417699358532e+00  7.559597924497e-01
-1.735522554518e+01  1.251894568240e+00  1.296572222663e+00
-2.016231530631e+01  1.507572330375e+00  2.551340684949e+00
 3.117335713143e+01  1.191270124905e+00  1.629597400948e+00
-3.031173266652e+00  2.664469464178e+00 -9.562095353376e-02
-7.729515606047e+00  6.694099494800e-01  6.991375517203e-01
-3.101455109084e+00  1.109228434608e-01  2.605794901715e+00
-1.261222386905e+01 -1.423301203453e+00 -1.602450296331e-02
-1.270859574293e+01 -3.730916837432e+00 -2.304150151230e-01
-2.937444044130e+01 -4.118327865163e+00 -9.350160754839e-02
-3.073547052174e+01  1.180310027423e+00  2.380760121769e-02
-2.598285836226e+01  3.000574913756e-01  2.294848825462e-02
-2.924143783815e+01  1.566016998073e-02  1.659158381539e-01
 1.513288739607e+01 -1.764038632094e-01 -2.694687524841e-01
-2.762410212406e+00 -1.050245034641e-01 -1.295890304788e-01
-1.088082162419e+01  4.469688254441e-01  4.860508825408e-01
-1.271748256352e+01 -1.931983724615e-02 -1.565792738468e+00
-1.246492539067e+01 -3.506173704787e-02 -3.927745586330e+00
-2.929836193878e+01  1.387641831681e-01 -3.952816248733e+00
-3.290529878833e+00  2.193035177586e+00  8.582444161411e-01