# vtk DataFile Version 3.0
diocotron_instability

ASCII

DATASET UNSTRUCTURED_GRID

POINTS 720 float
 0.000000000000  0.000000000000  0.000000000000
 1.999999999992  0.000000000000  0.000000000000
 1.847759064175  0.765366866758  0.000000000000
 1.999999999992  0.000000000000  0.000000000000
 3.999999999992  0.000000000000  0.000000000000
 1.847759064175  0.765366866758  0.000000000000
 0.000000000000  0.000000000000  0.000000000000
 1.847759064175  0.765366866758  0.000000000000
 1.414213558953  1.414213565788  0.000000000000
 0.000000000000  0.000000000000  0.000000000000
 1.847759066372 -0.765366861455  0.000000000000
 1.999999999992  0.000000000000  0.000000000000
 1.847759064175  0.765366866758  0.000000000000
 3.999999999992  0.000000000000  0.000000000000
 3.695518128358  1.530733733515  0.000000000000
 1.999999999992  0.000000000000  0.000000000000
 3.695518132751 -1.530733722910  0.000000000000
 3.999999999992  0.000000000000  0.000000000000
 1.847759064175  0.765366866758  0.000000000000
 3.695518128358  1.530733733515  0.000000000000
 1.414213558953  1.414213565788  0.000000000000
 0.000000000000  0.000000000000  0.000000000000
 1.414213558953  1.414213565788  0.000000000000
 0.765366862357  1.847759066007  0.000000000000
 3.695518132751 -1.530733722910  0.000000000000
 1.999999999992  0.000000000000  0.000000000000
 1.847759066372 -0.765366861455  0.000000000000
 0.000000000000  0.000000000000  0.000000000000
 1.414213566023 -1.414213558719  0.000000000000
 1.847759066372 -0.765366861455  0.000000000000
 3.999999999992  0.000000000000  0.000000000000
 6.000000000000  0.000000000000  0.000000000000
 3.695518128358  1.530733733515  0.000000000000
 5.543277199138 -2.296100584364  0.000000000000
 3.999999999992  0.000000000000  0.000000000000
 3.695518132751 -1.530733722910  0.000000000000
 1.414213558953  1.414213565788  0.000000000000
 3.695518128358  1.530733733515  0.000000000000
 2.828427117912  2.828427131575  0.000000000000
 1.414213558953  1.414213565788  0.000000000000
 2.828427117912  2.828427131575  0.000000000000
 0.765366862357  1.847759066007  0.000000000000
 0.000000000000  0.000000000000  0.000000000000
 0.765366862357  1.847759066007  0.000000000000
 0.000000000000  2.000000000006  0.000000000000
 1.847759066372 -0.765366861455  0.000000000000
 2.828427132052 -2.828427117435  0.000000000000
 3.695518132751 -1.530733722910  0.000000000000
 2.828427132052 -2.828427117435  0.000000000000
 1.847759066372 -0.765366861455  0.000000000000
 1.414213566023 -1.414213558719  0.000000000000
 0.000000000000  0.000000000000  0.000000000000
 0.765366867363 -1.847759063933  0.000000000000
 1.414213566023 -1.414213558719  0.000000000000
 3.695518128358  1.530733733515  0.000000000000
 6.000000000000  0.000000000000  0.000000000000
 5.543277192548  2.296100600273  0.000000000000
 3.999999999992  0.000000000000  0.000000000000
 5.543277199138 -2.296100584364  0.000000000000
 6.000000000000  0.000000000000  0.000000000000
 3.695518132751 -1.530733722910  0.000000000000
 4.242640698086 -4.242640676153  0.000000000000
 5.543277199138 -2.296100584364  0.000000000000
 3.695518128358  1.530733733515  0.000000000000
 5.543277192548  2.296100600273  0.000000000000
 2.828427117912  2.828427131575  0.000000000000
 0.765366862357  1.847759066007  0.000000000000
 2.828427117912  2.828427131575  0.000000000000
 1.530733724718  3.695518132010  0.000000000000
 0.765366862357  1.847759066007  0.000000000000
 1.530733724718  3.695518132010  0.000000000000
 0.000000000000  2.000000000006  0.000000000000
 0.000000000000  0.000000000000  0.000000000000
 0.000000000000  2.000000000006  0.000000000000
-0.765366866760  1.847759064188  0.000000000000
 4.242640698086 -4.242640676153  0.000000000000
 3.695518132751 -1.530733722910  0.000000000000
 2.828427132052 -2.828427117435  0.000000000000
 1.414213566023 -1.414213558719  0.000000000000
 1.530733734730 -3.695518127863  0.000000000000
 2.828427132052 -2.828427117435  0.000000000000
 1.530733734730 -3.695518127863  0.000000000000
 1.414213566023 -1.414213558719  0.000000000000
 0.765366867363 -1.847759063933  0.000000000000
 0.000000000000  0.000000000000  0.000000000000
-0.000000000000 -2.000000000006  0.000000000000
 0.765366867363 -1.847759063933  0.000000000000
 6.000000000000  0.000000000000  0.000000000000
 8.000000000000  0.000000000000  0.000000000000
 5.543277192548  2.296100600273  0.000000000000
 7.391036263670 -3.061467450279  0.000000000000
 6.000000000000  0.000000000000  0.000000000000
 5.543277199138 -2.296100584364  0.000000000000
 5.656854261245 -5.656854237740  0.000000000000
 5.543277199138 -2.296100584364  0.000000000000
 4.242640698086 -4.242640676153  0.000000000000
 2.828427117912  2.828427131575  0.000000000000
 5.543277192548  2.296100600273  0.000000000000
 4.242640676877  4.242640697362  0.000000000000
 2.828427117912  2.828427131575  0.000000000000
 4.242640676877  4.242640697362  0.000000000000
 1.530733724718  3.695518132010  0.000000000000
 0.000000000000  2.000000000006  0.000000000000
 1.530733724718  3.695518132010  0.000000000000
 0.000000000000  4.000000000004  0.000000000000
 0.000000000000  4.000000000004  0.000000000000
-0.765366866760  1.847759064188  0.000000000000
 0.000000000000  2.000000000006  0.000000000000
 0.000000000000  0.000000000000  0.000000000000
-0.765366866760  1.847759064188  0.000000000000
-1.414213565791  1.414213558963  0.000000000000
 2.828427132052 -2.828427117435  0.000000000000
 2.296100602099 -5.543277191792  0.000000000000
 4.242640698086 -4.242640676153  0.000000000000
 2.296100602099 -5.543277191792  0.000000000000
 2.828427132052 -2.828427117435  0.000000000000
 1.530733734730 -3.695518127863  0.000000000000
 0.765366867363 -1.847759063933  0.000000000000
-0.000000000000 -4.000000000004  0.000000000000
 1.530733734730 -3.695518127863  0.000000000000
-0.000000000000 -4.000000000004  0.000000000000
 0.765366867363 -1.847759063933  0.000000000000
-0.000000000000 -2.000000000006  0.000000000000
 0.000000000000  0.000000000000  0.000000000000
-0.765366861457 -1.847759066384  0.000000000000
-0.000000000000 -2.000000000006  0.000000000000
 5.543277192548  2.296100600273  0.000000000000
 8.000000000000  0.000000000000  0.000000000000
 7.391036256772  3.061467466933  0.000000000000
 6.000000000000  0.000000000000  0.000000000000
 7.391036263670 -3.061467450279  0.000000000000
 8.000000000000  0.000000000000  0.000000000000
 5.543277199138 -2.296100584364  0.000000000000
 5.656854261245 -5.656854237740  0.000000000000
 7.391036263670 -3.061467450279  0.000000000000
 4.242640698086 -4.242640676153  0.000000000000
 3.061467466365 -7.391036257007  0.000000000000
 5.656854261245 -5.656854237740  0.000000000000
 5.543277192548  2.296100600273  0.000000000000
 7.391036256772  3.061467466933  0.000000000000
 4.242640676877  4.242640697362  0.000000000000
 1.530733724718  3.695518132010  0.000000000000
 4.242640676877  4.242640697362  0.000000000000
 2.296100587081  5.543277198012  0.000000000000
 1.530733724718  3.695518132010  0.000000000000
 2.296100587081  5.543277198012  0.000000000000
 0.000000000000  4.000000000004  0.000000000000
-0.765366866760  1.847759064188  0.000000000000
 0.000000000000  4.000000000004  0.000000000000
-1.530733733517  3.695518128369  0.000000000000
-1.530733733517  3.695518128369  0.000000000000
-1.414213565791  1.414213558963  0.000000000000
-0.765366866760  1.847759064188  0.000000000000
 0.000000000000  0.000000000000  0.000000000000
-1.414213565791  1.414213558963  0.000000000000
-1.847759066009  0.765366862363  0.000000000000
 3.061467466365 -7.391036257007  0.000000000000
 4.242640698086 -4.242640676153  0.000000000000
 2.296100602099 -5.543277191792  0.000000000000
 1.530733734730 -3.695518127863  0.000000000000
-0.000000000000 -6.000000000000  0.000000000000
 2.296100602099 -5.543277191792  0.000000000000
-0.000000000000 -6.000000000000  0.000000000000
 1.530733734730 -3.695518127863  0.000000000000
-0.000000000000 -4.000000000004  0.000000000000
-0.000000000000 -2.000000000006  0.000000000000
-1.530733722911 -3.695518132762  0.000000000000
-0.000000000000 -4.000000000004  0.000000000000
-1.530733722911 -3.695518132762  0.000000000000
-0.000000000000 -2.000000000006  0.000000000000
-0.765366861457 -1.847759066384  0.000000000000
 0.000000000000  0.000000000000  0.000000000000
-1.414213558722 -1.414213566033  0.000000000000
-0.765366861457 -1.847759066384  0.000000000000
 8.000000000000  0.000000000000  0.000000000000
 10.000000000000  0.000000000000  0.000000000000
 7.391036256772  3.061467466933  0.000000000000
 9.238795329587 -3.826834312849  0.000000000000
 8.000000000000  0.000000000000  0.000000000000
 7.391036263670 -3.061467450279  0.000000000000
 7.071067826556 -7.071067797175  0.000000000000
 7.391036263670 -3.061467450279  0.000000000000
 5.656854261245 -5.656854237740  0.000000000000
 3.826834332956 -9.238795321259  0.000000000000
 5.656854261245 -5.656854237740  0.000000000000
 3.061467466365 -7.391036257007  0.000000000000
 4.242640676877  4.242640697362  0.000000000000
 7.391036256772  3.061467466933  0.000000000000
 5.656854236150  5.656854262835  0.000000000000
 4.242640676877  4.242640697362  0.000000000000
 5.656854236150  5.656854262835  0.000000000000
 2.296100587081  5.543277198012  0.000000000000
 0.000000000000  4.000000000004  0.000000000000
 2.296100587081  5.543277198012  0.000000000000
 0.000000000000  6.000000000000  0.000000000000
 0.000000000000  6.000000000000  0.000000000000
-1.530733733517  3.695518128369  0.000000000000
 0.000000000000  4.000000000004  0.000000000000
-1.414213565791  1.414213558963  0.000000000000
-1.530733733517  3.695518128369  0.000000000000
-2.828427131577  2.828427117920  0.000000000000
-2.828427131577  2.828427117920  0.000000000000
-1.847759066009  0.765366862363  0.000000000000
-1.414213565791  1.414213558963  0.000000000000
 0.000000000000  0.000000000000  0.000000000000
-1.847759066009  0.765366862363  0.000000000000
[...]
POINT_DATA 720

SCALARS Density float
LOOKUP_TABLE default
 8.863950461350e-08
 1.112020764320e-07
 1.121967998432e-07
 1.494402420305e-07
-4.036938217791e-09
 1.603221623652e-07
 8.864738252119e-08
 1.111580923235e-07
 1.121777675399e-07
 8.861663614573e-08
 1.111916504999e-07
 1.122223442593e-07
 1.581704500326e-07
-4.163300491070e-09
-8.868783828072e-09
 1.581397744215e-07
-4.378125416300e-09
-8.745092298906e-09
 1.495081307813e-07
-4.255848546780e-09
 1.605031450972e-07
 8.864638408109e-08
 1.111541960846e-07
 1.122307884154e-07
-4.280409317607e-09
 1.604365790744e-07
 1.496108168094e-07
 8.860236024826e-08
 1.112397446971e-07
 1.122255771102e-07
-3.793498423661e-07
 8.377536676719e-07
-3.213014214881e-07
 8.391145633402e-07
-3.219268810841e-07
-3.796331804067e-07
 1.582092578987e-07
-4.465122439856e-09
-9.066854055939e-09
 1.495276393481e-07
-4.440158131192e-09
 1.604379708290e-07
 8.863820185255e-08
 1.112400878322e-07
 1.122548634043e-07
 1.583002772647e-07
-4.683800794848e-09
-8.992928171632e-09
-4.468482342549e-09
 1.605890737293e-07
 1.495262511311e-07
 8.861260857377e-08
 1.112874721428e-07
 1.122695001371e-07
-3.085523411632e-07
 6.853204369982e-07
 8.636080125996e-07
-3.084526351173e-07
 6.862107497609e-07
 8.629957502526e-07
-3.080712386508e-07
 6.881636057088e-07
 8.640052195640e-07
-3.793093511369e-07
 8.383760668638e-07
-3.208476312089e-07
 1.580194008154e-07
-4.649845425987e-09
-8.909703394572e-09
 1.493048985337e-07
-4.307866257600e-09
 1.603060196963e-07
 8.862158003755e-08
 1.112410098835e-07
 1.122188208597e-07
 8.411925343018e-07
-3.218995969274e-07
-3.795389413071e-07
 1.581896722233e-07
-4.656024767646e-09
-9.025603281050e-09
-4.384397708938e-09
 1.603958647793e-07
 1.493019238286e-07
 8.862475066277e-08
 1.112109207400e-07
 1.122782655615e-07
 8.912916992243e-07
 2.745655517709e-07
 9.172558032674e-07
 2.737595374057e-07
 9.179773738953e-07
 8.914713274143e-07
 2.727734502453e-07
 9.181063776524e-07
 8.911076368935e-07
-3.084453368290e-07
 6.862698172913e-07
 8.651166230315e-07
-3.795539589585e-07
 8.401108775859e-07
-3.207217229633e-07
 1.580766755058e-07
-4.533830525021e-09
-8.937641767505e-09
-4.405764763237e-09
 1.605072498099e-07
 1.494100710448e-07
 8.861307543995e-08
 1.111898832920e-07
 1.122161209661e-07
-3.075063350631e-07
 6.892528826686e-07
 8.656864275447e-07
 8.419474181870e-07
-3.209974325334e-07
-3.793513255141e-07
 1.579977687598e-07
-4.606062506943e-09
-8.914803909262e-09
-4.350412769596e-09
 1.603526648077e-07
 1.494122718365e-07
 8.862416992407e-08
 1.111697125319e-07
 1.122195370800e-07
 8.823796953855e-07
 3.310185903836e-07
 2.451917411823e-07
 8.830471542327e-07
 3.303343742213e-07
 2.449818836288e-07
 8.831965567970e-07
 3.293486051414e-07
 2.440750305701e-07
 8.826774856877e-07
 3.290400361590e-07
 2.432891952531e-07
 8.907563890803e-07
 2.744864095870e-07
 9.166948496287e-07
-3.080046749627e-07
 6.878974458167e-07
 8.659422514485e-07
-3.795528954217e-07
 8.411949763703e-07
-3.210107489325e-07
 1.582444118292e-07
-4.660851449559e-09
-9.063310418739e-09
-4.441508290083e-09
 1.605127791716e-07
 1.495714252616e-07
 8.860894913330e-08
 1.112133859922e-07
 1.122171538395e-07
 2.725547654511e-07
 9.175678907358e-07
 8.906970290192e-07
-3.075138882035e-07
 6.885832268084e-07
 8.664759512514e-07
 8.408636984287e-07
-3.203377402576e-07
-3.794184608449e-07
 1.581154427486e-07
-4.561786771179e-09
-8.954671426803e-09
-4.332792511065e-09
 1.605144246281e-07
 1.495868743367e-07
 8.861540828600e-08
 1.112083694497e-07
 1.122132985615e-07
 4.050829682406e-07
 2.461155043117e-08
 4.382906531928e-07
 2.443293790316e-08
 4.376949908643e-07
 4.042747544353e-07
 2.402613003334e-08
 4.368824435397e-07
 4.036859667237e-07
 2.382583512389e-08
 4.366073224124e-07
 4.038348081531e-07
 8.818780862051e-07
 3.308283457817e-07
 2.446251036722e-07
 8.904082315278e-07
 2.737335325671e-07
 9.166946253502e-07
-3.077879789441e-07
 6.885984160826e-07
 8.655497927458e-07
 8.409180413710e-07
-3.215745170396e-07
-3.795974645395e-07
 1.581580796045e-07
-4.619243434895e-09
-8.913007650223e-09
-4.232251615715e-09
 1.603523254231e-07
 1.494469731696e-07
 8.859547455734e-08
 1.111990727902e-07
 1.121798949072e-07
 8.821365260025e-07
 3.295589161605e-07
 2.433364698638e-07
 2.731521581837e-07
 9.170263453693e-07
 8.905721261522e-07
-3.081048772938e-07
 6.870335817740e-07
 8.657649288438e-07
 8.391845049671e-07
-3.205240154878e-07
-3.794627863350e-07
 1.582678830216e-07
-4.304188917364e-09
-8.969977585798e-09
-4.103334339158e-09
 1.604748002382e-07
 1.495698914231e-07
 8.860106643198e-08
 1.111742497083e-07
 1.122339192313e-07
 4.082695470458e-07
 4.299528935117e-08
-9.564105925916e-09
 4.078988167148e-07
 4.275114909578e-08
-9.323340008754e-09
 4.070916961283e-07
 4.228886392832e-08
-9.506413953851e-09
 4.065967748624e-07
 4.210036103816e-08
-9.919760087639e-09
 4.068194339796e-07
 4.232180209451e-08
-1.011644213934e-08
 4.053700397776e-07
 2.437605524962e-08
 4.382021717199e-07
 8.818748460399e-07
 3.300716316167e-07
 2.438726974734e-07
 8.904311710914e-07
 2.730303545961e-07
 9.171522823891e-07
-3.081444671580e-07
 6.880580957668e-07
 8.648036136549e-07
 8.400393579443e-07
-3.217831037385e-07
-3.798167476570e-07
 1.581872641531e-07
-4.379777682519e-09
-8.852071566450e-09
-4.212572363407e-09
 1.605360796580e-07
 1.494920498093e-07
 8.858849366310e-08
 1.111369341159e-07
 1.121957940091e-07
 2.397919202260e-08
 4.370402584067e-07
 4.044542824525e-07
 8.820081251744e-07
 3.302615568580e-07
 2.440248685444e-07
 2.738904935607e-07
 9.168637958352e-07
 8.906651373867e-07
-3.085757364533e-07
 6.860120148640e-07
 8.644092413874e-07
 8.383033408213e-07
-3.211232709634e-07
-3.795765565169e-07
 1.582687030199e-07
-4.168739008353e-09
-8.791402934117e-09
-4.067999215387e-09
 1.604501075548e-07
 1.496683054682e-07
 4.937846803061e-08
 1.152365749227e-08
 3.942867315845e-08
 1.148619542183e-08
 3.930652496870e-08
 4.902884253788e-08
 1.161449749753e-08
 3.879809504825e-08
 4.860516881799e-08
 1.175008979814e-08
 3.844080384759e-08
 4.854673958138e-08
 1.172730012987e-08
 3.859281188902e-08
 4.887213135907e-08
 4.079555278543e-07
 4.278402522673e-08
-9.982419875542e-09
 4.049739644468e-07
 2.397393412479e-08
 4.376206549598e-07
 8.823120014375e-07
 3.294428274808e-07
 2.436173357911e-07
 2.729755070466e-07
 9.176886091384e-07
 8.907835873896e-07
-3.084607806880e-07
 6.872439515203e-07
 8.644956560304e-07
 8.395979831884e-07
-3.218089188238e-07
-3.798209285397e-07
 1.584488969821e-07
-4.394720445193e-09
-9.017437760442e-09
-4.302040900620e-09
 1.606544386170e-07
 1.497603398358e-07
 4.074339422108e-07
 4.263544158530e-08
-9.963577324496e-09
 2.423883030081e-08
 4.376926134735e-07
 4.049847308459e-07
 8.822029763253e-07
 3.306699512307e-07
 2.446782069556e-07
 2.742791318964e-07
 9.170354776755e-07
 8.909145068642e-07
-3.088560108706e-07
 6.860484523636e-07
 8.636604181936e-07
 8.385633074697e-07
-3.218270830904e-07
-3.800318499639e-07
 1.583994905969e-07
-4.428423990613e-09
-8.859689887409e-09
 3.501318544580e-08
 1.257667813662e-08
 9.324154203467e-09
 3.498669944179e-08
 1.250214924390e-08
 9.288227185790e-09
 3.459490088548e-08
 1.258768620261e-08
 9.370658806786e-09
 3.424173826752e-08
 1.273025475768e-08
 9.515265484203e-09
 3.428774685076e-08
 1.274048984644e-08
 9.540860208256e-09
 3.464218498747e-08
 1.266903517646e-08
 9.414389546066e-09
 4.930513704861e-08
 1.165719327283e-08
 3.905944979509e-08
 4.073351717375e-07
 4.235160110986e-08
-1.017540893558e-08
 4.043306090553e-07
 2.380642531929e-08
 4.371013236992e-07
 8.828111562783e-07
 3.294842253282e-07
 2.439624769237e-07
 2.734648679358e-07
 9.178238515693e-07
 8.911971566818e-07
-3.086309065180e-07
 6.869742577370e-07
 8.645096678250e-07
 8.395978064680e-07
-3.221826791577e-07
-3.798846041319e-07
 1.163490171143e-08
 3.901446584367e-08
 4.917730573077e-08
 4.079268428584e-07
 4.275140983297e-08
-9.725395360957e-09
 2.434701639221e-08
 4.380990249003e-07
 4.051536522010e-07
 8.825501313662e-07
 3.306867745738e-07
 2.449189940058e-07
 2.742388015511e-07
 9.173871557780e-07
 8.911310610317e-07
-3.091378243947e-07
 6.866760922250e-07
 8.638559864906e-07
 8.392948498831e-07
-3.223544845662e-07
-3.801926860988e-07
 1.545138762836e-08
-4.172350771561e-09
 1.877802693978e-08
-4.146297361791e-09
 1.871520112095e-08
 1.541428147526e-08
-4.180860775410e-09
 1.871020545058e-08
 1.544252045005e-08
-4.210012192824e-09
 1.879695689046e-08
 1.551589246743e-08
-4.228020818697e-09
 1.886466008503e-08
 1.550663376725e-08
-4.226795189508e-09
 1.880861980349e-08
 1.545399505963e-08
 3.466069709069e-08
 1.270309369873e-08
 9.449847947006e-09
 4.889758806777e-08
 1.176303902855e-08
 3.859601698821e-08
 4.069758816127e-07
 4.213504568728e-08
-9.968686825528e-09
 2.401532440946e-08
 4.370652992334e-07
 4.040301817831e-07
 8.829056258476e-07
 3.300166825428e-07
 2.443745744024e-07
 2.738455594792e-07
 9.176136363782e-07
 8.912694699308e-07
-3.090042147630e-07
 6.870156991372e-07
 8.643434535910e-07
 3.490037062102e-08
 1.258461246448e-08
 9.323968360597e-09
 1.154960360593e-08
 3.925309350215e-08
 4.920060700848e-08
 4.080587667761e-07
 4.265857850854e-08
-9.638515038324e-09
 2.427579970233e-08
 4.381292748117e-07
 4.050191319824e-07
 8.827834350996e-07
 3.304702973952e-07
 2.447935950732e-07
 2.739999551142e-07
 9.175954035448e-07
 8.911157048741e-07
 1.567484289866e-08
-3.541705823488e-09
-5.767756677514e-09
 1.562988639826e-08
-3.511463057253e-09
-5.723346495995e-09
 1.560600982611e-08
-3.547984427488e-09
-5.713468403878e-09
 1.564539760075e-08
-3.563271894448e-09
-5.762168963578e-09
 1.570875121452e-08
-3.571913758249e-09
-5.785827445063e-09
 1.568499534523e-08
-3.589620617605e-09
-5.786311825421e-09
 1.562933158922e-08
-3.535609084697e-09
-5.773113767656e-09
 1.550244459252e-08
-4.215398279903e-09
 1.885444048762e-08
 3.431400350164e-08
 1.276704276519e-08
 9.531809151947e-09
 4.858779690735e-08
 1.173643938977e-08
 3.851727723298e-08
 4.071189189665e-07
 4.232445224971e-08
-9.634147964856e-09
 2.431815312537e-08
 4.373892083959e-07
 4.042530118018e-07
 8.827319437055e-07
 3.303557309983e-07
 2.445076564549e-07
 2.739007069532e-07
 9.175471506641e-07
 8.911141500377e-07
-4.172180530859e-09
 1.873992745053e-08
 1.543205700208e-08
 3.486395068474e-08
 1.252632391674e-08
 9.303309265887e-09
 1.151614715369e-08
 3.917058131934e-08
 4.905274614413e-08
 4.079016290703e-07
 4.254421387267e-08
-9.704165631657e-09
 2.419126044879e-08
 4.379263126488e-07
 4.048382083212e-07
 8.827368592571e-07
 3.303683367170e-07
 2.445860200585e-07
-5.151800573700e-10
 2.419285611997e-10
-4.688667530671e-10
 2.393750493560e-10
-4.605164476445e-10
-5.051781522555e-10
 2.418246827406e-10
-4.634458711610e-10
-5.211489691743e-10
 2.446120131759e-10
-4.746221650138e-10
-5.248921055963e-10
 2.487798525894e-10
-4.716182004569e-10
-5.214878921264e-10
 2.487370173972e-10
-4.745732628600e-10
-5.338451909713e-10
 2.414266431511e-10
-4.760224510925e-10
-5.175892189623e-10
 1.570933523436e-08
-3.566026645206e-09
-5.795805423525e-09
 1.552642288463e-08
-4.233295234472e-09
 1.885100154933e-08
 3.432435551353e-08
 1.271013439760e-08
 9.504496448810e-09
 1.163757634800e-08
 3.883827079347e-08
 4.867855657096e-08
 4.074687353219e-07
 4.264131254671e-08
-9.542531661184e-09
 2.438676231560e-08
 4.376482082325e-07
 4.046126808699e-07
 1.560503028987e-08
-3.511212488226e-09
-5.720714096685e-09
-4.150179187238e-09
 1.870023128230e-08
 1.540079926259e-08
 3.469293900343e-08
 1.257708330487e-08
 9.320612752018e-09
 1.158023280073e-08
 3.897538843346e-08
 4.895987736528e-08
 4.077284388090e-07
 4.259258340346e-08
-9.766691501203e-09
 2.425656965143e-08
 4.377563380537e-07
 4.047648814617e-07
-4.221074689263e-10
 2.561891272950e-10
 3.005960191420e-10
-4.166678031082e-10
 2.535425437907e-10
 2.977780195384e-10
-4.148816518920e-10
 2.549870709081e-10
 2.976325275427e-10
-4.254410444369e-10
 2.572111960847e-10
 3.015719583388e-10
-4.239422854435e-10
 2.623269798833e-10
 3.023155052388e-10
-4.235005081070e-10
 2.627795779571e-10
 3.068779251142e-10
-4.298536015202e-10
 2.552391445787e-10
 3.057858725790e-10
-4.170622204215e-10
 2.548547238841e-10
 2.962435520324e-10
-5.221341761802e-10
 2.438907822042e-10
-4.735132314549e-10
 1.569215177591e-08
-3.584032097242e-09
-5.785173557835e-09
 1.550091413696e-08
-4.212334338138e-09
 1.880303282571e-08
 3.461568344577e-08
 1.262618464389e-08
 9.396097872407e-09
 1.156380239920e-08
 3.912256790377e-08
 4.899868277444e-08
 4.076534557216e-07
 4.272106606884e-08
-9.679835525671e-09
 2.407463731066e-10
-4.601202094893e-10
-5.021977328646e-10
 1.558335365308e-08
-3.543536504140e-09
-5.707585259252e-09
-4.177493605915e-09
 1.868816918270e-08
 1.541476137885e-08
 3.462684588127e-08
 1.264841261390e-08
 9.376554735027e-09
 1.162936730103e-08
 3.894229208585e-08
 4.903398570872e-08
-4.258051015920e-10
 2.572144993059e-10
 3.027966491357e-10
-5.286394136374e-10
 2.460765434657e-10
-4.729553900870e-10
 1.565749018586e-08
-3.560916231198e-09
-5.758433270180e-09
-4.185276711026e-09
 1.874330612444e-08
 1.546546310805e-08
 3.479677168629e-08
 1.258176404213e-08
 9.338047593807e-09
 1.157931658259e-08
 3.909136195449e-08
 4.913777758041e-08
-4.109033873503e-10
 2.561459688268e-10
 2.977765998401e-10
 2.423022207548e-10
-4.594855428124e-10
-5.187129505869e-10
 1.560498778176e-08
-3.537941086020e-09
-5.745290534048e-09
-4.177429028380e-09
 1.873837550864e-08
 1.547317913425e-08
 3.472511137859e-08
 1.261353054149e-08
 9.381373452465e-09
-4.231030317679e-10
 2.596300263114e-10
 3.034137949086e-10
-5.204473879497e-10
 2.454471841198e-10
-4.697564986227e-10
 1.562191729459e-08
-3.545352093908e-09
-5.752164904216e-09
-4.188256034758e-09
 1.874153603223e-08
 1.543272505589e-08
-4.223875774538e-10
 2.525007518306e-10
 3.007282023003e-10
 2.397218790422e-10
-4.704506032668e-10
-5.181571795881e-10
 1.565602197468e-08
-3.529478760889e-09
-5.743808672772e-09
-4.176303919854e-09
 1.878059875891e-08
 1.545962468610e-08
-4.225095873203e-10
 2.588829309946e-10
 2.997764743377e-10
 2.421381523775e-10
-4.731568315998e-10
-5.213608012902e-10
 1.563934114824e-08
-3.557556377847e-09
-5.737108881212e-09
-4.178737814903e-10
 2.558108507015e-10
 2.959785713607e-10
 2.422214431050e-10
-4.625934898821e-10
-5.073928628827e-10
-4.252725098870e-10
 2.549584708152e-10
 3.025308805773e-10
 2.439741017022e-10
-4.644230228499e-10
-5.233600896415e-10
-4.148890375574e-10
 2.579188101151e-10
 3.001537234404e-10

VECTORS Momentum float
 1.314505708851e-09 -1.581720966807e-08  0.000000000000e+00
-1.628802084673e-09  2.754906062739e-07  0.000000000000e+00
-1.024865832477e-07  2.576054924824e-07  0.000000000000e+00
 1.709247948006e-09  3.564786441608e-07  0.000000000000e+00
 2.930896086584e-08 -4.801166508452e-08  0.000000000000e+00
-1.255544190181e-07  3.786775167965e-07  0.000000000000e+00
 7.230311544203e-09 -1.399061489553e-08  0.000000000000e+00
-1.067569181976e-07  2.536150015804e-07  0.000000000000e+00
-1.932589921108e-07  1.984995675602e-07  0.000000000000e+00
-4.807866639357e-09 -1.523393297592e-08  0.000000000000e+00
 1.037426608950e-07  2.552884048745e-07  0.000000000000e+00
 3.839618755508e-09  2.774970834839e-07  0.000000000000e+00
-9.585531336208e-08  3.394295854573e-07  0.000000000000e+00
 1.347732585216e-08 -1.947600374732e-08  0.000000000000e+00
 6.096100486658e-09 -3.176137403227e-08  0.000000000000e+00
 4.116695232548e-08  3.506045144469e-07  0.000000000000e+00
 4.747258246124e-09 -2.357816828125e-08  0.000000000000e+00
-6.514968312680e-09 -3.146212342123e-08  0.000000000000e+00
-1.346279723708e-07  3.297488215241e-07  0.000000000000e+00
 4.567933325484e-08 -3.352147033117e-08  0.000000000000e+00
-2.610627850196e-07  3.016508810557e-07  0.000000000000e+00
 1.203789211549e-08 -1.006887748649e-08  0.000000000000e+00
-1.957052289001e-07  1.932080532992e-07  0.000000000000e+00
-2.547485323628e-07  1.092888905854e-07  0.000000000000e+00
 8.245151974973e-09 -5.618388107334e-08  0.000000000000e+00
 2.878028335731e-08  3.986944042304e-07  0.000000000000e+00
 1.378154225148e-07  3.293128517484e-07  0.000000000000e+00
-1.018295663131e-08 -1.237351303867e-08  0.000000000000e+00
 1.933326307838e-07  1.962629218894e-07  0.000000000000e+00
 1.095467342953e-07  2.550915727044e-07  0.000000000000e+00
 1.500228402661e-07 -1.863497803726e-06  0.000000000000e+00
-3.773708775108e-07  5.895507842478e-06  0.000000000000e+00
 1.704836748393e-07 -1.574128197274e-06  0.000000000000e+00
 1.907918493413e-06  5.612057622848e-06  0.000000000000e+00
-4.443861145761e-07 -1.524581207649e-06  0.000000000000e+00
-5.728807602069e-07 -1.783723995281e-06  0.000000000000e+00
-2.184627464942e-07  2.763702657637e-07  0.000000000000e+00
 2.024759223435e-08 -1.326278085987e-08  0.000000000000e+00
 1.807942482411e-08 -2.727102397930e-08  0.000000000000e+00
-2.506263127972e-07  2.527460152295e-07  0.000000000000e+00
 5.541770341862e-08 -1.394888136768e-08  0.000000000000e+00
-3.566167450693e-07  1.783461211529e-07  0.000000000000e+00
 1.500129015814e-08 -4.637956231484e-09  0.000000000000e+00
-2.550572720645e-07  1.034771980278e-07  0.000000000000e+00
-2.774444650693e-07  3.404087648863e-09  0.000000000000e+00
 1.717298105421e-07  3.085640761924e-07  0.000000000000e+00
-5.078120193194e-09 -2.412393921466e-08  0.000000000000e+00
-1.828485497650e-08 -2.698771047273e-08  0.000000000000e+00
-1.445651408861e-08 -5.543132068412e-08  0.000000000000e+00
 1.789228138706e-07  3.578228659674e-07  0.000000000000e+00
 2.526642161791e-07  2.513024098119e-07  0.000000000000e+00
-1.406256680284e-08 -7.646691484727e-09  0.000000000000e+00
 2.535207060879e-07  1.072631644006e-07  0.000000000000e+00
 1.986319899581e-07  1.938456582318e-07  0.000000000000e+00
 5.855746615643e-07 -3.068979391269e-06  0.000000000000e+00
-7.605910658091e-08  6.061308091795e-06  0.000000000000e+00
-2.779601095068e-06  7.574639236679e-06  0.000000000000e+00
-6.350308134383e-07 -3.062193603705e-06  0.000000000000e+00
 2.253035180226e-06  5.647540767978e-06  0.000000000000e+00
 3.315329704478e-07  8.058729270782e-06  0.000000000000e+00
-1.763714884677e-06 -2.594024851794e-06  0.000000000000e+00
 4.261587456002e-06  4.382366280403e-06  0.000000000000e+00
 3.398978247742e-06  7.344527983593e-06  0.000000000000e+00
 8.508648979009e-07 -1.664643411444e-06  0.000000000000e+00
-2.604413527570e-06  5.307185149913e-06  0.000000000000e+00
 7.586413209478e-07 -1.388437259151e-06  0.000000000000e+00
-3.072965635984e-07  1.710212021907e-07  0.000000000000e+00
 2.410453182059e-08 -4.761548214393e-09  0.000000000000e+00
 2.693549663177e-08 -1.815864474917e-08  0.000000000000e+00
-3.279979028504e-07  1.370853669735e-07  0.000000000000e+00
 5.644905388867e-08  8.198011906966e-09  0.000000000000e+00
-3.977569636518e-07  2.808987871535e-08  0.000000000000e+00
 1.561998216213e-08  1.450018566630e-09  0.000000000000e+00
-2.754414286065e-07 -2.052863426289e-09  0.000000000000e+00
-2.577564894809e-07 -1.030226424654e-07  0.000000000000e+00
 3.925103784166e-06  4.477909635287e-06  0.000000000000e+00
-9.951471918233e-07 -1.242143336687e-06  0.000000000000e+00
-1.212485327858e-06 -1.432519990377e-06  0.000000000000e+00
 2.757811240632e-07  2.191052146902e-07  0.000000000000e+00
-1.383631247547e-08 -2.043660298212e-08  0.000000000000e+00
-2.728904698465e-08 -1.800891592899e-08  0.000000000000e+00
-3.439950597426e-08 -4.572855640386e-08  0.000000000000e+00
 3.012278415210e-07  2.616033719664e-07  0.000000000000e+00
 3.286611099073e-07  1.350469305769e-07  0.000000000000e+00
-1.581927445998e-08 -1.692066206155e-09  0.000000000000e+00
 2.749021985880e-07  1.772958745274e-09  0.000000000000e+00
 2.574177188768e-07  1.029279828986e-07  0.000000000000e+00
-2.355910806807e-07  1.146367031017e-05  0.000000000000e+00
-7.282434262009e-08  1.219001757994e-05  0.000000000000e+00
-3.352239254571e-06  9.473946399185e-06  0.000000000000e+00
 4.596789734700e-06  1.127434321205e-05  0.000000000000e+00