# vtk DataFile Version 3.0
My problem

ASCII

DATASET UNSTRUCTURED_GRID

POINTS 1365 float
0.150000000000 0.200000000000 0.000000000000
0.164644660879 0.235355338998 0.000000000000
0.094125089635 0.257934478648 0.000000000000
0.150960735981 0.209754516105 0.000000000000
0.153806023369 0.219134171605 0.000000000000
0.158426519355 0.227778511606 0.000000000000
0.147014768068 0.241000123910 0.000000000000
0.129384875257 0.246644908823 0.000000000000
0.111754982446 0.252289693735 0.000000000000
0.108093817227 0.243450858986 0.000000000000
0.122062544818 0.228967239324 0.000000000000
0.136031272409 0.214483619662 0.000000000000
0.141196037928 0.233156418366 0.000000000000
0.124409358652 0.238350496252 0.000000000000
0.137463146241 0.224144420616 0.000000000000
0.094125089635 0.257934478648 0.000000000000
0.164644660879 0.235355338998 0.000000000000
0.163607239260 0.283089168565 0.000000000000
0.111754982446 0.252289693735 0.000000000000
0.129384875257 0.246644908823 0.000000000000
0.147014768068 0.241000123910 0.000000000000
0.164385305474 0.247288796390 0.000000000000
0.164125950070 0.259222253782 0.000000000000
0.163866594665 0.271155711173 0.000000000000
0.146236701854 0.276800496086 0.000000000000
0.128866164448 0.270511823607 0.000000000000
0.111495627042 0.264223151127 0.000000000000
0.146755412663 0.252933581302 0.000000000000
0.146496057259 0.264867038694 0.000000000000
0.129125519853 0.258578366215 0.000000000000
0.089743248417 0.148877807294 0.000000000000
0.150000000000 0.200000000000 0.000000000000
0.094125089635 0.257934478648 0.000000000000
0.104807436313 0.161658355470 0.000000000000
0.119871624208 0.174438903647 0.000000000000
0.134935812104 0.187219451823 0.000000000000
0.136031272409 0.214483619662 0.000000000000
0.122062544818 0.228967239324 0.000000000000
0.108093817227 0.243450858986 0.000000000000
0.093029629331 0.230670310809 0.000000000000
0.091934169026 0.203406142971 0.000000000000
0.090838708722 0.176141975132 0.000000000000
0.120967084513 0.201703071485 0.000000000000
0.106998356922 0.216186691147 0.000000000000
0.105902896617 0.188922523309 0.000000000000
0.164644660879 0.235355338998 0.000000000000
0.200000000000 0.250000000000 0.000000000000
0.163607239260 0.283089168565 0.000000000000
0.172221488281 0.241573480570 0.000000000000
0.180865828317 0.246193976599 0.000000000000
0.190245483865 0.249039264013 0.000000000000
0.190901809815 0.258272292141 0.000000000000
0.181803619630 0.266544584283 0.000000000000
0.172705429445 0.274816876424 0.000000000000
0.163866594665 0.271155711173 0.000000000000
0.164125950070 0.259222253782 0.000000000000
0.164385305474 0.247288796390 0.000000000000
0.181241008827 0.256840418298 0.000000000000
0.172420362667 0.264197770428 0.000000000000
0.172229011035 0.253107526576 0.000000000000
0.141055056809 0.334766653500 0.000000000000
0.094125089635 0.257934478648 0.000000000000
0.163607239260 0.283089168565 0.000000000000
0.129322565016 0.315558609787 0.000000000000
0.117590073222 0.296350566074 0.000000000000
0.105857581429 0.277142522361 0.000000000000
0.111495627042 0.264223151127 0.000000000000
0.128866164448 0.270511823607 0.000000000000
0.146236701854 0.276800496086 0.000000000000
0.157969193647 0.296008539799 0.000000000000
0.152331148035 0.308927911032 0.000000000000
0.146693102422 0.321847282266 0.000000000000
0.123228118835 0.283431194840 0.000000000000
0.140598656241 0.289719867320 0.000000000000
0.134960610629 0.302639238553 0.000000000000
0.000000000000 0.205000000001 0.000000000000
0.089743248417 0.148877807294 0.000000000000
0.094125089635 0.257934478648 0.000000000000
0.022435812104 0.190969451824 0.000000000000
0.044871624208 0.176938903647 0.000000000000
0.067307436313 0.162908355470 0.000000000000
0.090838708722 0.176141975132 0.000000000000
0.091934169026 0.203406142971 0.000000000000
0.093029629331 0.230670310809 0.000000000000
0.070593817227 0.244700858986 0.000000000000
0.047062544818 0.231467239324 0.000000000000
0.023531272409 0.218233619662 0.000000000000
0.068402896617 0.190172523309 0.000000000000
0.069498356922 0.217436691147 0.000000000000
0.045967084513 0.204203071486 0.000000000000
0.164644661002 0.164644660879 0.000000000000
0.150000000000 0.200000000000 0.000000000000
0.089743248417 0.148877807294 0.000000000000
0.158426519430 0.172221488281 0.000000000000
0.153806023401 0.180865828317 0.000000000000
0.150960735987 0.190245483865 0.000000000000
0.134935812104 0.187219451823 0.000000000000
0.119871624208 0.174438903647 0.000000000000
0.104807436313 0.161658355470 0.000000000000
0.108468601563 0.152819520690 0.000000000000
0.127193954710 0.156761234086 0.000000000000
0.145919307856 0.160702947483 0.000000000000
0.136367685948 0.177558650835 0.000000000000
0.122218438063 0.165055646683 0.000000000000
0.140100577670 0.168546653044 0.000000000000
0.200000000000 0.250000000000 0.000000000000
0.223783463494 0.301037700553 0.000000000000
0.163607239260 0.283089168565 0.000000000000
0.205945865874 0.262759425138 0.000000000000
0.211891731747 0.275518850277 0.000000000000
0.217837597621 0.288278275415 0.000000000000
0.208739407436 0.296550567556 0.000000000000
0.193695351377 0.292063434559 0.000000000000
0.178651295319 0.287576301562 0.000000000000
0.172705429445 0.274816876424 0.000000000000
0.181803619630 0.266544584283 0.000000000000
0.190901809815 0.258272292141 0.000000000000
0.202793541562 0.283791142418 0.000000000000
0.187749485504 0.279304009421 0.000000000000
0.196847675689 0.271031717280 0.000000000000
0.223783463494 0.301037700553 0.000000000000
0.141055056809 0.334766653500 0.000000000000
0.163607239260 0.283089168565 0.000000000000
0.203101361823 0.309469938790 0.000000000000
0.182419260152 0.317902177026 0.000000000000
0.161737158480 0.326334415263 0.000000000000
0.146693102422 0.321847282266 0.000000000000
0.152331148035 0.308927911032 0.000000000000
0.157969193647 0.296008539799 0.000000000000
0.178651295319 0.287576301562 0.000000000000
0.193695351377 0.292063434559 0.000000000000
0.208739407436 0.296550567556 0.000000000000
0.167375204093 0.313415044029 0.000000000000
0.173013249706 0.300495672796 0.000000000000
0.188057305764 0.304982805793 0.000000000000
0.141055056809 0.334766653500 0.000000000000
0.000000000000 0.410000000000 0.000000000000
0.094125089635 0.257934478648 0.000000000000
0.105791292607 0.353574990125 0.000000000000
0.070527528405 0.372383326750 0.000000000000
0.035263764202 0.391191663375 0.000000000000
0.023531272409 0.371983619662 0.000000000000
0.047062544818 0.333967239324 0.000000000000
0.070593817227 0.295950858986 0.000000000000
0.105857581429 0.277142522361 0.000000000000
0.117590073222 0.296350566074 0.000000000000
0.129322565016 0.315558609787 0.000000000000
0.058795036611 0.353175283037 0.000000000000
0.082326309020 0.315158902699 0.000000000000
0.094058800813 0.334366946412 0.000000000000
0.000000000000 0.410000000000 0.000000000000
0.000000000000 0.205000000001 0.000000000000
0.094125089635 0.257934478648 0.000000000000
0.000000000000 0.358750000000 0.000000000000
0.000000000000 0.307500000000 0.000000000000
0.000000000000 0.256250000000 0.000000000000
0.023531272409 0.218233619662 0.000000000000
0.047062544818 0.231467239324 0.000000000000
0.070593817227 0.244700858986 0.000000000000
0.070593817227 0.295950858986 0.000000000000
0.047062544818 0.333967239324 0.000000000000
0.023531272409 0.371983619662 0.000000000000
0.023531272409 0.269483619662 0.000000000000
0.047062544818 0.282717239324 0.000000000000
0.023531272409 0.320733619662 0.000000000000
0.000000000000 0.205000000001 0.000000000000
0.000000000000 0.000000000000 0.000000000000
0.089743248417 0.148877807294 0.000000000000
0.000000000000 0.153750000000 0.000000000000
0.000000000000 0.102500000000 0.000000000000
0.000000000000 0.051250000000 0.000000000000
0.022435812104 0.037219451823 0.000000000000
0.044871624208 0.074438903647 0.000000000000
0.067307436313 0.111658355470 0.000000000000
0.067307436313 0.162908355470 0.000000000000
0.044871624208 0.176938903647 0.000000000000
0.022435812104 0.190969451824 0.000000000000
0.022435812104 0.088469451824 0.000000000000
0.044871624208 0.125688903647 0.000000000000
0.022435812104 0.139719451824 0.000000000000
0.164644661002 0.164644660879 0.000000000000
0.089743248417 0.148877807294 0.000000000000
0.151039468757 0.087915444092 0.000000000000
0.145919307856 0.160702947483 0.000000000000
0.127193954710 0.156761234086 0.000000000000
0.108468601563 0.152819520690 0.000000000000
0.105067303502 0.133637216493 0.000000000000
0.120391358587 0.118396625693 0.000000000000
0.135715413672 0.103156034892 0.000000000000
0.154440766818 0.107097748289 0.000000000000
0.157842064879 0.126280052485 0.000000000000
0.161243362941 0.145462356682 0.000000000000
0.123792656648 0.137578929890 0.000000000000
0.139116711733 0.122338339089 0.000000000000
0.142518009794 0.141520643286 0.000000000000
0.200000000000 0.250000000000 0.000000000000
0.231622776514 0.238729833533 0.000000000000
0.223783463494 0.301037700553 0.000000000000
0.208517251206 0.249269223983 0.000000000000
0.216785534301 0.247098257274 0.000000000000
0.224563158735 0.243550559502 0.000000000000
0.229662948259 0.254306800288 0.000000000000
0.227703120004 0.269883767043 0.000000000000
0.225743291749 0.285460733798 0.000000000000
0.217837597621 0.288278275415 0.000000000000
0.211891731747 0.275518850277 0.000000000000
0.205945865874 0.262759425138 0.000000000000
0.222423828817 0.258809269208 0.000000000000
0.220161834232 0.273723796148 0.000000000000
0.214400875052 0.261668601448 0.000000000000
0.226269332114 0.410000000000 0.000000000000
0.141055056809 0.334766653500 0.000000000000
0.223783463494 0.301037700553 0.000000000000
0.204965763288 0.391191663375 0.000000000000
0.183662194462 0.372383326750 0.000000000000
0.162358625636 0.353574990125 0.000000000000
0.161737158480 0.326334415263 0.000000000000
0.182419260152 0.317902177026 0.000000000000
0.203101361823 0.309469938790 0.000000000000
0.224404930649 0.328278275415 0.000000000000
[...]
POINT_DATA 1365

TENSORS Scaled_strain_rate float
1.749666810003 -3.479952539994 51.889167615267 0.000000000000 0.000000000000 0.000000000000 0.000000000000 0.000000000000 0.000000000000
211.497539142302 -203.659907394515 17.125022923310 0.000000000000 0.000000000000 0.000000000000 0.000000000000 0.000000000000 0.000000000000
-43.168580779944 -14.136651721824 -159.879171270612 0.000000000000 0.000000000000 0.000000000000 0.000000000000 0.000000000000 0.000000000000
49.383189862135 -41.610327384330 128.156081667406 0.000000000000 0.000000000000 0.000000000000 0.000000000000 0.000000000000 0.000000000000
100.302830870282 -96.675324783820 135.927823356494 0.000000000000 0.000000000000 0.000000000000 0.000000000000 0.000000000000 0.000000000000
157.606502414183 -156.721859083443 96.112732652285 0.000000000000 0.000000000000 0.000000000000 0.000000000000 0.000000000000 0.000000000000
-12.753918449785 12.428528383702 -57.364515212692 0.000000000000 0.000000000000 0.000000000000 0.000000000000 0.000000000000 0.000000000000
-1.878223258724 -2.957420928328 -8.234806138763 0.000000000000 0.000000000000 0.000000000000 0.000000000000 0.000000000000 0.000000000000
24.929239251577 -49.235585423380 -5.387946693277 0.000000000000 0.000000000000 0.000000000000 0.000000000000 0.000000000000 0.000000000000
-24.271250645291 25.661561569733 -4.777178877133 0.000000000000 0.000000000000 0.000000000000 0.000000000000 0.000000000000 0.000000000000
4.790707086207 2.030502933338 -9.861134514293 0.000000000000 0.000000000000 0.000000000000 0.000000000000 0.000000000000 0.000000000000
56.746368284694 -61.632965753159 -46.612433824406 0.000000000000 0.000000000000 0.000000000000 0.000000000000 0.000000000000 0.000000000000
5.264300252303 -5.189139019735 -65.717862270275 0.000000000000 0.000000000000 0.000000000000 0.000000000000 0.000000000000 0.000000000000
3.395649155604 0.673515301259 -32.353225339661 0.000000000000 0.000000000000 0.000000000000 0.000000000000 0.000000000000 0.000000000000
26.716499444289 -28.640639768862 -60.808879871713 0.000000000000 0.000000000000 0.000000000000 0.000000000000 0.000000000000 0.000000000000
-57.570281674139 99.817727217537 7.895910649148 0.000000000000 0.000000000000 0.000000000000 0.000000000000 0.000000000000 0.000000000000
196.629125929035 -212.429571181428 -46.629381002001 0.000000000000 0.000000000000 0.000000000000 0.000000000000 0.000000000000 0.000000000000
-21.707648854589 6.535186493057 -32.021419192453 0.000000000000 0.000000000000 0.000000000000 0.000000000000 0.000000000000 0.000000000000
9.134421594480 11.809725422431 -14.653035297718 0.000000000000 0.000000000000 0.000000000000 0.000000000000 0.000000000000 0.000000000000
-16.574128147346 22.268535112758 -21.923959801638 0.000000000000 0.000000000000 0.000000000000 0.000000000000 0.000000000000 0.000000000000
-7.257187125043 7.629719309942 -44.115460254498 0.000000000000 0.000000000000 0.000000000000 0.000000000000 0.000000000000 0.000000000000
38.507562190908 -41.004491094223 -9.337613545360 0.000000000000 0.000000000000 0.000000000000 0.000000000000 0.000000000000 0.000000000000
-28.840284265106 24.764104655660 14.892575620387 0.000000000000 0.000000000000 0.000000000000 0.000000000000 0.000000000000 0.000000000000
-37.219763024482 23.525329595770 6.481209422791 0.000000000000 0.000000000000 0.000000000000 0.000000000000 0.000000000000 0.000000000000
-4.275920747261 12.535971175110 -11.149999716772 0.000000000000 0.000000000000 0.000000000000 0.000000000000 0.000000000000 0.000000000000
-5.047051608535 7.814048999734 -12.610478146421 0.000000000000 0.000000000000 0.000000000000 0.000000000000 0.000000000000 0.000000000000
-19.971818341172 26.444234246796 -3.262984347458 0.000000000000 0.000000000000 0.000000000000 0.000000000000 0.000000000000 0.000000000000
-29.040140560812 29.713826113624 -25.201193659675 0.000000000000 0.000000000000 0.000000000000 0.000000000000 0.000000000000 0.000000000000
-15.169620052344 16.651522195722 -14.227695161192 0.000000000000 0.000000000000 0.000000000000 0.000000000000 0.000000000000 0.000000000000
1.421615908698 -6.652902573326 -22.927735041800 0.000000000000 0.000000000000 0.000000000000 0.000000000000 0.000000000000 0.000000000000
14.622154129584 3.863361716589 6.560631788521 0.000000000000 0.000000000000 0.000000000000 0.000000000000 0.000000000000 0.000000000000
63.805749160234 -70.528859732365 11.191498094996 0.000000000000 0.000000000000 0.000000000000 0.000000000000 0.000000000000 0.000000000000
17.418785645802 12.421910676926 -10.783917673970 0.000000000000 0.000000000000 0.000000000000 0.000000000000 0.000000000000 0.000000000000
12.685041738300 -12.654213649058 13.732390438897 0.000000000000 0.000000000000 0.000000000000 0.000000000000 0.000000000000 0.000000000000
13.218761935387 -20.243270273925 24.846265696474 0.000000000000 0.000000000000 0.000000000000 0.000000000000 0.000000000000 0.000000000000
38.363937753198 -41.028265383325 29.635890696343 0.000000000000 0.000000000000 0.000000000000 0.000000000000 0.000000000000 0.000000000000
36.310300011074 -35.716789284537 -32.636368726959 0.000000000000 0.000000000000 0.000000000000 0.000000000000 0.000000000000 0.000000000000
11.572580976480 -16.556330856315 -27.397732270223 0.000000000000 0.000000000000 0.000000000000 0.000000000000 0.000000000000 0.000000000000
13.169546132832 -10.756823318846 -13.753665487898 0.000000000000 0.000000000000 0.000000000000 0.000000000000 0.000000000000 0.000000000000
4.622819117465 -4.424503208448 -22.384777392523 0.000000000000 0.000000000000 0.000000000000 0.000000000000 0.000000000000 0.000000000000
8.328995100077 -10.238460180964 -3.024097827274 0.000000000000 0.000000000000 0.000000000000 0.000000000000 0.000000000000 0.000000000000
7.309805224897 -6.503051278371 15.604967438621 0.000000000000 0.000000000000 0.000000000000 0.000000000000 0.000000000000 0.000000000000
24.526350347007 -23.288290884578 -4.971050021578 0.000000000000 0.000000000000 0.000000000000 0.000000000000 0.000000000000 0.000000000000
14.748571394733 -15.483910486088 -10.334432586825 0.000000000000 0.000000000000 0.000000000000 0.000000000000 0.000000000000 0.000000000000
16.177812256394 -16.043073089238 4.925474410826 0.000000000000 0.000000000000 0.000000000000 0.000000000000 0.000000000000 0.000000000000
249.950121954150 -226.367441877180 -45.818975651368 0.000000000000 0.000000000000 0.000000000000 0.000000000000 0.000000000000 0.000000000000
-5.034463895339 -11.108995102997 -227.480141470787 0.000000000000 0.000000000000 0.000000000000 0.000000000000 0.000000000000 0.000000000000
48.047375083795 -8.158125587981 44.087010475272 0.000000000000 0.000000000000 0.000000000000 0.000000000000 0.000000000000 0.000000000000
231.505723715156 -232.118708762054 -135.671411113009 0.000000000000 0.000000000000 0.000000000000 0.000000000000 0.000000000000 0.000000000000
169.788755160035 -171.844117466027 -227.243182684024 0.000000000000 0.000000000000 0.000000000000 0.000000000000 0.000000000000 0.000000000000
78.671122422922 -78.671710407153 -266.930660549729 0.000000000000 0.000000000000 0.000000000000 0.000000000000 0.000000000000 0.000000000000
65.026729498531 -74.484393556954 -83.562347735222 0.000000000000 0.000000000000 0.000000000000 0.000000000000 0.000000000000 0.000000000000
-4.493286737069 -11.010425274248 -13.184678750572 0.000000000000 0.000000000000 0.000000000000 0.000000000000 0.000000000000 0.000000000000
-43.028574225375 29.219111328068 7.306966118288 0.000000000000 0.000000000000 0.000000000000 0.000000000000 0.000000000000 0.000000000000
5.655947089278 8.840980078577 3.273566486808 0.000000000000 0.000000000000 0.000000000000 0.000000000000 0.000000000000 0.000000000000
-23.028727632112 22.574403013387 -30.498251685672 0.000000000000 0.000000000000 0.000000000000 0.000000000000 0.000000000000 0.000000000000
38.922070960720 -36.939625562972 -67.414551967338 0.000000000000 0.000000000000 0.000000000000 0.000000000000 0.000000000000 0.000000000000
41.968674661659 -38.546917993219 -41.140009476884 0.000000000000 0.000000000000 0.000000000000 0.000000000000 0.000000000000 0.000000000000
-27.710292859949 27.901179297359 17.227203464973 0.000000000000 0.000000000000 0.000000000000 0.000000000000 0.000000000000 0.000000000000
31.405128070718 -32.906147397025 -36.154199016074 0.000000000000 0.000000000000 0.000000000000 0.000000000000 0.000000000000 0.000000000000
-7.665927322707 11.700215354303 18.784761746512 0.000000000000 0.000000000000 0.000000000000 0.000000000000 0.000000000000 0.000000000000
18.744947083913 -45.013798460330 2.524352238108 0.000000000000 0.000000000000 0.000000000000 0.000000000000 0.000000000000 0.000000000000
-34.910783052331 26.850859224381 -9.365086163497 0.000000000000 0.000000000000 0.000000000000 0.000000000000 0.000000000000 0.000000000000
-1.201251277859 0.610201947386 8.298546242775 0.000000000000 0.000000000000 0.000000000000 0.000000000000 0.000000000000 0.000000000000
2.782097129367 -1.196829036213 3.138682064331 0.000000000000 0.000000000000 0.000000000000 0.000000000000 0.000000000000 0.000000000000
9.054564531528 -3.491158234681 -8.999711215285 0.000000000000 0.000000000000 0.000000000000 0.000000000000 0.000000000000 0.000000000000
-19.903326909643 9.091631082834 2.142041704670 0.000000000000 0.000000000000 0.000000000000 0.000000000000 0.000000000000 0.000000000000
-13.337750333543 13.070289090380 7.136283995480 0.000000000000 0.000000000000 0.000000000000 0.000000000000 0.000000000000 0.000000000000
-9.553110450984 7.244691733591 9.667608520330 0.000000000000 0.000000000000 0.000000000000 0.000000000000 0.000000000000 0.000000000000
-16.202458529335 13.713371894117 5.717247394599 0.000000000000 0.000000000000 0.000000000000 0.000000000000 0.000000000000 0.000000000000
-9.117446498796 9.417009047490 11.147944108111 0.000000000000 0.000000000000 0.000000000000 0.000000000000 0.000000000000 0.000000000000
-9.935902401656 9.484143394927 14.982211785984 0.000000000000 0.000000000000 0.000000000000 0.000000000000 0.000000000000 0.000000000000
-10.125961210909 11.089573256009 -5.120683336597 0.000000000000 0.000000000000 0.000000000000 0.000000000000 0.000000000000 0.000000000000
-9.451090582864 10.354572792740 -1.151135495842 0.000000000000 0.000000000000 0.000000000000 0.000000000000 0.000000000000 0.000000000000
-8.124817446423 7.474442290127 -1.256092527136 0.000000000000 0.000000000000 0.000000000000 0.000000000000 0.000000000000 0.000000000000
5.057180368171 -9.191606000965 -1.349028346179 0.000000000000 0.000000000000 0.000000000000 0.000000000000 0.000000000000 0.000000000000
-10.426102078084 4.177715308192 -16.732150856930 0.000000000000 0.000000000000 0.000000000000 0.000000000000 0.000000000000 0.000000000000
-13.708319941194 8.338631642102 19.093111750353 0.000000000000 0.000000000000 0.000000000000 0.000000000000 0.000000000000 0.000000000000
3.305834599495 -4.543995448090 -0.816934809988 0.000000000000 0.000000000000 0.000000000000 0.000000000000 0.000000000000 0.000000000000
3.690608927139 -6.267799196687 -0.987187434324 0.000000000000 0.000000000000 0.000000000000 0.000000000000 0.000000000000 0.000000000000
4.960621909886 -6.884143424310 -1.664743517759 0.000000000000 0.000000000000 0.000000000000 0.000000000000 0.000000000000 0.000000000000
3.632532535543 -5.855855222883 4.162933524845 0.000000000000 0.000000000000 0.000000000000 0.000000000000 0.000000000000 0.000000000000
10.824873831171 -10.802740250746 -1.973715042033 0.000000000000 0.000000000000 0.000000000000 0.000000000000 0.000000000000 0.000000000000
2.688432942303 -5.090370453430 -6.631677364035 0.000000000000 0.000000000000 0.000000000000 0.000000000000 0.000000000000 0.000000000000
3.461482730730 -4.792214000675 -0.295582813046 0.000000000000 0.000000000000 0.000000000000 0.000000000000 0.000000000000 0.000000000000
2.873093246660 -5.053437027458 -0.336963674762 0.000000000000 0.000000000000 0.000000000000 0.000000000000 0.000000000000 0.000000000000
2.521789020133 -3.759448408605 -0.580297035954 0.000000000000 0.000000000000 0.000000000000 0.000000000000 0.000000000000 0.000000000000
7.207301949894 -6.677991548452 1.318004637515 0.000000000000 0.000000000000 0.000000000000 0.000000000000 0.000000000000 0.000000000000
7.048394151333 -6.636424327055 -4.832175892966 0.000000000000 0.000000000000 0.000000000000 0.000000000000 0.000000000000 0.000000000000
2.693143351180 -2.236437798492 -1.054777601420 0.000000000000 0.000000000000 0.000000000000 0.000000000000 0.000000000000 0.000000000000
188.087148885061 -207.980052790157 4.312862148863 0.000000000000 0.000000000000 0.000000000000 0.000000000000 0.000000000000 0.000000000000
3.404466006608 -3.712968073058 -16.500341542023 0.000000000000 0.000000000000 0.000000000000 0.000000000000 0.000000000000 0.000000000000
-18.837766469945 -40.873018079353 138.582392694680 0.000000000000 0.000000000000 0.000000000000 0.000000000000 0.000000000000 0.000000000000
133.373257788037 -133.263933599747 -82.532649740750 0.000000000000 0.000000000000 0.000000000000 0.000000000000 0.000000000000 0.000000000000
81.340342208948 -77.761595836863 -109.225771878463 0.000000000000 0.000000000000 0.000000000000 0.000000000000 0.000000000000 0.000000000000
36.673714062847 -31.734630474310 -89.671657504237 0.000000000000 0.000000000000 0.000000000000 0.000000000000 0.000000000000 0.000000000000
59.969803668250 -58.561891388727 25.908438233167 0.000000000000 0.000000000000 0.000000000000 0.000000000000 0.000000000000 0.000000000000
11.501167942028 0.429169999812 2.073903039012 0.000000000000 0.000000000000 0.000000000000 0.000000000000 0.000000000000 0.000000000000
-15.980356010917 22.513453881691 5.144989856250 0.000000000000 0.000000000000 0.000000000000 0.000000000000 0.000000000000 0.000000000000
25.836288756035 -47.672770225945 -7.765564296943 0.000000000000 0.000000000000 0.000000000000 0.000000000000 0.000000000000 0.000000000000
1.444154208133 -3.747692710243 -1.381536697746 0.000000000000 0.000000000000 0.000000000000 0.000000000000 0.000000000000 0.000000000000
-2.932290299123 5.692930837588 47.824401021875 0.000000000000 0.000000000000 0.000000000000 0.000000000000 0.000000000000 0.000000000000
30.136518399999 -33.068157927103 54.440975062518 0.000000000000 0.000000000000 0.000000000000 0.000000000000 0.000000000000 0.000000000000
7.521497025485 -5.457175806467 30.657312887951 0.000000000000 0.000000000000 0.000000000000 0.000000000000 0.000000000000 0.000000000000
12.736215880525 -12.426029711367 61.531024741184 0.000000000000 0.000000000000 0.000000000000 0.000000000000 0.000000000000 0.000000000000
37.297123864432 -22.534825934658 -186.814920295636 0.000000000000 0.000000000000 0.000000000000 0.000000000000 0.000000000000 0.000000000000
15.405520026875 -28.162230578985 12.556766866346 0.000000000000 0.000000000000 0.000000000000 0.000000000000 0.000000000000 0.000000000000
32.359695335237 -35.588301306083 -25.338711484534 0.000000000000 0.000000000000 0.000000000000 0.000000000000 0.000000000000 0.000000000000
27.607713189215 -27.943031839155 -89.026454706585 0.000000000000 0.000000000000 0.000000000000 0.000000000000 0.000000000000 0.000000000000
9.576432225041 -5.559086441716 -14.764093289267 0.000000000000 0.000000000000 0.000000000000 0.000000000000 0.000000000000 0.000000000000
0.811600660169 8.270545743649 26.275334276034 0.000000000000 0.000000000000 0.000000000000 0.000000000000 0.000000000000 0.000000000000
0.006022779840 -2.609168718859 7.528891246773 0.000000000000 0.000000000000 0.000000000000 0.000000000000 0.000000000000 0.000000000000
0.288422101695 -2.206241980672 0.220902322626 0.000000000000 0.000000000000 0.000000000000 0.000000000000 0.000000000000 0.000000000000
4.644402646366 -15.813180104821 -11.360712151388 0.000000000000 0.000000000000 0.000000000000 0.000000000000 0.000000000000 0.000000000000
-30.955429600641 36.137414364147 31.613556967035 0.000000000000 0.000000000000 0.000000000000 0.000000000000 0.000000000000 0.000000000000
-3.171123578857 9.958720568121 10.561605858738 0.000000000000 0.000000000000 0.000000000000 0.000000000000 0.000000000000 0.000000000000
46.518246179667 -41.996925854403 -65.970008132367 0.000000000000 0.000000000000 0.000000000000 0.000000000000 0.000000000000 0.000000000000
-9.765412087175 10.101866017552 27.907739131161 0.000000000000 0.000000000000 0.000000000000 0.000000000000 0.000000000000 0.000000000000
-18.797030235747 19.635368462090 29.466106316022 0.000000000000 0.000000000000 0.000000000000 0.000000000000 0.000000000000 0.000000000000
10.125849441210 -12.105567896446 -1.831047083775 0.000000000000 0.000000000000 0.000000000000 0.000000000000 0.000000000000 0.000000000000
1.228129056590 -5.749203752335 10.369442156867 0.000000000000 0.000000000000 0.000000000000 0.000000000000 0.000000000000 0.000000000000
-7.413591825133 2.624236238714 5.417016867599 0.000000000000 0.000000000000 0.000000000000 0.000000000000 0.000000000000 0.000000000000
-11.313908084193 31.591372990773 13.235436916716 0.000000000000 0.000000000000 0.000000000000 0.000000000000 0.000000000000 0.000000000000
-4.228461329393 4.368522603888 15.403529585112 0.000000000000 0.000000000000 0.000000000000 0.000000000000 0.000000000000 0.000000000000
-6.063670418411 7.602213672445 14.568072142914 0.000000000000 0.000000000000 0.000000000000 0.000000000000 0.000000000000 0.000000000000
-6.559249465674 7.565711585573 10.010854339552 0.000000000000 0.000000000000 0.000000000000 0.000000000000 0.000000000000 0.000000000000
-5.393412722076 5.697622637311 4.740639939640 0.000000000000 0.000000000000 0.000000000000 0.000000000000 0.000000000000 0.000000000000
-3.396842358266 4.658393982629 3.107081824153 0.000000000000 0.000000000000 0.000000000000 0.000000000000 0.000000000000 0.000000000000
-7.198269062467 10.502026986865 7.415931555304 0.000000000000 0.000000000000 0.000000000000 0.000000000000 0.000000000000 0.000000000000
-10.681588379317 16.654479219792 11.025207150178 0.000000000000 0.000000000000 0.000000000000 0.000000000000 0.000000000000 0.000000000000
-6.356991184140 10.497040764757 10.678657752419 0.000000000000 0.000000000000 0.000000000000 0.000000000000 0.000000000000 0.000000000000
-1.803086213775 3.105714608301 9.397714384801 0.000000000000 0.000000000000 0.000000000000 0.000000000000 0.000000000000 0.000000000000
-8.859941070259 9.019806770134 9.613150906880 0.000000000000 0.000000000000 0.000000000000 0.000000000000 0.000000000000 0.000000000000
-10.965798413476 9.310595199840 10.576422577726 0.000000000000 0.000000000000 0.000000000000 0.000000000000 0.000000000000 0.000000000000
-7.893885109361 7.612578418272 14.146843791611 0.000000000000 0.000000000000 0.000000000000 0.000000000000 0.000000000000 0.000000000000
-7.570255413375 11.507286809135 13.446261337014 0.000000000000 0.000000000000 0.000000000000 0.000000000000 0.000000000000 0.000000000000
0.902821182389 0.388373244041 16.723419141490 0.000000000000 0.000000000000 0.000000000000 0.000000000000 0.000000000000 0.000000000000
10.083048321201 -14.647112448993 -10.793877579029 0.000000000000 0.000000000000 0.000000000000 0.000000000000 0.000000000000 0.000000000000
-5.362719672279 7.289543324792 10.714435486808 0.000000000000 0.000000000000 0.000000000000 0.000000000000 0.000000000000 0.000000000000
-4.158798496574 5.879185610986 11.253468748719 0.000000000000 0.000000000000 0.000000000000 0.000000000000 0.000000000000 0.000000000000
-2.559811953324 3.934961225578 13.927208999905 0.000000000000 0.000000000000 0.000000000000 0.000000000000 0.000000000000 0.000000000000
-0.038616606933 -0.514216559533 9.519604572139 0.000000000000 0.000000000000 0.000000000000 0.000000000000 0.000000000000 0.000000000000
-1.834060851514 2.346507664974 6.927548908793 0.000000000000 0.000000000000 0.000000000000 0.000000000000 0.000000000000 0.000000000000
-1.688466691414 1.562869564947 2.835605469349 0.000000000000 0.000000000000 0.000000000000 0.000000000000 0.000000000000 0.000000000000