# vtk DataFile Version 3.0
My problem

ASCII

DATASET UNSTRUCTURED_GRID

POINTS 85 float
0.248989794856 0.190000000000 0.000000000000
0.600000000000 0.190000000000 0.000000000000
0.600000000000 0.210000000000 0.000000000000
0.248989794856 0.210000000000 0.000000000000
0.336742346142 0.190000000000 0.000000000000
0.424494897427 0.190000000000 0.000000000000
0.512247448714 0.190000000000 0.000000000000
0.512247448714 0.210000000000 0.000000000000
0.424494897428 0.210000000000 0.000000000000
0.336742346142 0.210000000000 0.000000000000
0.358680483963 0.190000000000 0.000000000000
0.380618621784 0.190000000000 0.000000000000
0.402556759606 0.190000000000 0.000000000000
0.446433035249 0.190000000000 0.000000000000
0.468371173071 0.190000000000 0.000000000000
0.490309310892 0.190000000000 0.000000000000
0.534185586535 0.190000000000 0.000000000000
0.556123724357 0.190000000000 0.000000000000
0.578061862178 0.190000000000 0.000000000000
0.600000000000 0.195000000000 0.000000000000
0.600000000000 0.200000000000 0.000000000000
0.600000000000 0.205000000000 0.000000000000
0.270927932677 0.190000000000 0.000000000000
0.292866070499 0.190000000000 0.000000000000
0.314804208320 0.190000000000 0.000000000000
0.578061862178 0.210000000000 0.000000000000
0.556123724357 0.210000000000 0.000000000000
0.534185586536 0.210000000000 0.000000000000
0.490309310893 0.210000000000 0.000000000000
0.468371173071 0.210000000000 0.000000000000
0.446433035250 0.210000000000 0.000000000000
0.402556759607 0.210000000000 0.000000000000
0.380618621785 0.210000000000 0.000000000000
0.358680483964 0.210000000000 0.000000000000
0.314804208320 0.210000000000 0.000000000000
0.292866070499 0.210000000000 0.000000000000
0.270927932677 0.210000000000 0.000000000000
0.248989794856 0.205000000000 0.000000000000
0.248989794856 0.200000000000 0.000000000000
0.248989794856 0.195000000000 0.000000000000
0.314804208320 0.195000000000 0.000000000000
0.292866070499 0.200000000000 0.000000000000
0.270927932677 0.205000000000 0.000000000000
0.270927932677 0.195000000000 0.000000000000
0.292866070499 0.195000000000 0.000000000000
0.270927932677 0.200000000000 0.000000000000
0.336742346142 0.195000000000 0.000000000000
0.336742346142 0.200000000000 0.000000000000
0.336742346142 0.205000000000 0.000000000000
0.292866070499 0.205000000000 0.000000000000
0.314804208320 0.200000000000 0.000000000000
0.314804208320 0.205000000000 0.000000000000
0.424494897428 0.195000000000 0.000000000000
0.424494897428 0.200000000000 0.000000000000
0.424494897428 0.205000000000 0.000000000000
0.402556759607 0.205000000000 0.000000000000
0.380618621785 0.200000000000 0.000000000000
0.358680483963 0.195000000000 0.000000000000
0.380618621785 0.195000000000 0.000000000000
0.402556759606 0.195000000000 0.000000000000
0.402556759606 0.200000000000 0.000000000000
0.380618621785 0.205000000000 0.000000000000
0.358680483963 0.205000000000 0.000000000000
0.358680483963 0.200000000000 0.000000000000
0.490309310892 0.195000000000 0.000000000000
0.468371173071 0.200000000000 0.000000000000
0.446433035250 0.205000000000 0.000000000000
0.446433035249 0.195000000000 0.000000000000
0.468371173071 0.195000000000 0.000000000000
0.446433035249 0.200000000000 0.000000000000
0.512247448714 0.195000000000 0.000000000000
0.512247448714 0.200000000000 0.000000000000
0.512247448714 0.205000000000 0.000000000000
0.468371173071 0.205000000000 0.000000000000
0.490309310892 0.200000000000 0.000000000000
0.490309310893 0.205000000000 0.000000000000
0.578061862178 0.205000000000 0.000000000000
0.556123724357 0.200000000000 0.000000000000
0.534185586535 0.195000000000 0.000000000000
0.556123724357 0.195000000000 0.000000000000
0.578061862178 0.195000000000 0.000000000000
0.578061862178 0.200000000000 0.000000000000
0.556123724357 0.205000000000 0.000000000000
0.534185586535 0.205000000000 0.000000000000
0.534185586535 0.200000000000 0.000000000000

CELLS 8 128
15 0 4 3 22 23 24 40 41 42 37 38 39 43 44 45
15 3 4 9 42 41 40 46 47 48 34 35 36 49 50 51
15 8 9 4 31 32 33 48 47 46 57 56 55 61 62 63
15 4 5 8 10 11 12 52 53 54 55 56 57 58 59 60
15 5 6 8 13 14 15 64 65 66 54 53 52 67 68 69
15 8 6 7 66 65 64 70 71 72 28 29 30 73 74 75
15 2 7 6 25 26 27 72 71 70 78 77 76 82 83 84
15 6 1 2 16 17 18 19 20 21 76 77 78 79 80 81

CELL_TYPES 8
69
69
69
69
69
69
69
69

POINT_DATA 85

VECTORS Displacement float
0.000000000000 0.000000000000 0.000000000000
-0.001560762361 -0.016423322962 0.000000000000
-0.004100637829 -0.016598019027 0.000000000000
0.000000000000 0.000000000000 0.000000000000
-0.003204094054 -0.012997954706 0.000000000000
-0.003093428888 -0.027569812767 0.000000000000
-0.001466478215 -0.026598927484 0.000000000000
-0.003172829703 -0.026704888316 0.000000000000
-0.001496510823 -0.027668135160 0.000000000000
0.000926524843 -0.013511974096 0.000000000000
-0.003526966836 -0.017509286951 0.000000000000
-0.003617210182 -0.021539998494 0.000000000000
-0.003535260936 -0.025166354463 0.000000000000
-0.002624838484 -0.028858842829 0.000000000000
-0.002172441244 -0.029089329969 0.000000000000
-0.001731933617 -0.028223148753 0.000000000000
-0.001332438220 -0.024401001179 0.000000000000
-0.001335312650 -0.021858508284 0.000000000000
-0.001426911342 -0.019183063385 0.000000000000
-0.002209222434 -0.016469675248 0.000000000000
-0.002849825441 -0.016513117571 0.000000000000
-0.003480922737 -0.016555692089 0.000000000000
-0.001215734408 -0.001808656234 0.000000000000
-0.002211798416 -0.005092716951 0.000000000000
-0.002495474306 -0.008549630261 0.000000000000
-0.003890288970 -0.019341878456 0.000000000000
-0.003712771992 -0.022017166777 0.000000000000
-0.003460599673 -0.024531182251 0.000000000000
-0.002843816985 -0.028267520393 0.000000000000
-0.002421168923 -0.029114792035 0.000000000000
-0.001986623727 -0.028891892139 0.000000000000
-0.000836039743 -0.025357773929 0.000000000000
-0.000270338885 -0.021843750910 0.000000000000
0.000405729833 -0.017919861870 0.000000000000
0.001088700307 -0.008874165231 0.000000000000
0.001164793457 -0.005392440239 0.000000000000
0.000857486063 -0.001949735118 0.000000000000
0.000000000000 0.000000000000 0.000000000000
0.000000000000 0.000000000000 0.000000000000
0.000000000000 0.000000000000 0.000000000000
-0.001665117561 -0.008593413850 0.000000000000
-0.000410066111 -0.005217505786 0.000000000000
0.000339079864 -0.001838630029 0.000000000000
-0.000890191757 -0.001720309869 0.000000000000
-0.001220854709 -0.005155780477 0.000000000000
-0.000274531531 -0.001744303079 0.000000000000
-0.002180499036 -0.013100256866 0.000000000000
-0.001130850230 -0.013215066513 0.000000000000
-0.000061060092 -0.013354676412 0.000000000000
0.000371873887 -0.005291628748 0.000000000000
-0.000719771453 -0.008684954231 0.000000000000
0.000172556656 -0.008771220874 0.000000000000
-0.002672157644 -0.027665767442 0.000000000000
-0.002293924133 -0.027709608494 0.000000000000
-0.001902916898 -0.027709465713 0.000000000000
-0.001531868422 -0.025360208314 0.000000000000
-0.001911562536 -0.021738839666 0.000000000000
-0.002545636312 -0.017631856404 0.000000000000
-0.002759821774 -0.021651692047 0.000000000000
-0.002875267877 -0.025263444968 0.000000000000
-0.002198422018 -0.025328124154 0.000000000000
-0.001067613086 -0.021805299549 0.000000000000
-0.000665171568 -0.017832157060 0.000000000000
-0.001610664699 -0.017740595653 0.000000000000
-0.002014232656 -0.028275517877 0.000000000000
-0.002284021294 -0.029170948356 0.000000000000
-0.002145397253 -0.028939512138 0.000000000000
-0.002496662668 -0.028917110052 0.000000000000
-0.002218360441 -0.029147094799 0.000000000000
-0.002321184040 -0.028945499659 0.000000000000
-0.001890740855 -0.026652208667 0.000000000000
-0.002310215609 -0.026685756233 0.000000000000
-0.002731461566 -0.026702132963 0.000000000000
-0.002352179625 -0.029159571479 0.000000000000
-0.002283347844 -0.028302239549 0.000000000000
-0.002559539723 -0.028299571373 0.000000000000
-0.003275740091 -0.019305960693 0.000000000000
-0.002519671961 -0.021948678083 0.000000000000
-0.001863380898 -0.024454421996 0.000000000000
-0.001928844683 -0.021907029239 0.000000000000
-0.002040610097 -0.019227008999 0.000000000000
-0.002655986352 -0.019267716102 0.000000000000
-0.003110746903 -0.021985395653 0.000000000000
-0.002932312250 -0.024520206874 0.000000000000
-0.002398568504 -0.024494330757 0.000000000000

CELL_DATA 8

SCALARS Density float
LOOKUP_TABLE default
10000.000000000000
10000.000000000000
10000.000000000000
10000.000000000000
10000.000000000000
10000.000000000000
10000.000000000000
10000.000000000000

SCALARS Youngs_modulus float
LOOKUP_TABLE default
1400000.000000000000
1400000.000000000000
1400000.000000000000
1400000.000000000000
1400000.000000000000
1400000.000000000000
1400000.000000000000
1400000.000000000000

SCALARS Poissons_ratio float
LOOKUP_TABLE default
0.400000000000
0.400000000000
0.400000000000
0.400000000000
0.400000000000
0.400000000000
0.400000000000
0.400000000000
