# vtk DataFile Version 3.0
My problem

ASCII

DATASET UNSTRUCTURED_GRID

POINTS 1365 float
0.150000000000 0.200000000000 0.000000000000
0.164644660879 0.235355338998 0.000000000000
0.094125089635 0.257934478648 0.000000000000
0.150960735981 0.209754516105 0.000000000000
0.153806023369 0.219134171605 0.000000000000
0.158426519355 0.227778511606 0.000000000000
0.147014768068 0.241000123910 0.000000000000
0.129384875257 0.246644908823 0.000000000000
0.111754982446 0.252289693735 0.000000000000
0.108093817227 0.243450858986 0.000000000000
0.122062544818 0.228967239324 0.000000000000
0.136031272409 0.214483619662 0.000000000000
0.141196037928 0.233156418366 0.000000000000
0.124409358652 0.238350496252 0.000000000000
0.137463146241 0.224144420616 0.000000000000
0.094125089635 0.257934478648 0.000000000000
0.164644660879 0.235355338998 0.000000000000
0.163607239260 0.283089168565 0.000000000000
0.111754982446 0.252289693735 0.000000000000
0.129384875257 0.246644908823 0.000000000000
0.147014768068 0.241000123910 0.000000000000
0.164385305474 0.247288796390 0.000000000000
0.164125950070 0.259222253782 0.000000000000
0.163866594665 0.271155711173 0.000000000000
0.146236701854 0.276800496086 0.000000000000
0.128866164448 0.270511823607 0.000000000000
0.111495627042 0.264223151127 0.000000000000
0.146755412663 0.252933581302 0.000000000000
0.146496057259 0.264867038694 0.000000000000
0.129125519853 0.258578366215 0.000000000000
0.089743248417 0.148877807294 0.000000000000
0.150000000000 0.200000000000 0.000000000000
0.094125089635 0.257934478648 0.000000000000
0.104807436313 0.161658355470 0.000000000000
0.119871624208 0.174438903647 0.000000000000
0.134935812104 0.187219451823 0.000000000000
0.136031272409 0.214483619662 0.000000000000
0.122062544818 0.228967239324 0.000000000000
0.108093817227 0.243450858986 0.000000000000
0.093029629331 0.230670310809 0.000000000000
0.091934169026 0.203406142971 0.000000000000
0.090838708722 0.176141975132 0.000000000000
0.120967084513 0.201703071485 0.000000000000
0.106998356922 0.216186691147 0.000000000000
0.105902896617 0.188922523309 0.000000000000
0.164644660879 0.235355338998 0.000000000000
0.200000000000 0.250000000000 0.000000000000
0.163607239260 0.283089168565 0.000000000000
0.172221488281 0.241573480570 0.000000000000
0.180865828317 0.246193976599 0.000000000000
0.190245483865 0.249039264013 0.000000000000
0.190901809815 0.258272292141 0.000000000000
0.181803619630 0.266544584283 0.000000000000
0.172705429445 0.274816876424 0.000000000000
0.163866594665 0.271155711173 0.000000000000
0.164125950070 0.259222253782 0.000000000000
0.164385305474 0.247288796390 0.000000000000
0.181241008827 0.256840418298 0.000000000000
0.172420362667 0.264197770428 0.000000000000
0.172229011035 0.253107526576 0.000000000000
0.141055056809 0.334766653500 0.000000000000
0.094125089635 0.257934478648 0.000000000000
0.163607239260 0.283089168565 0.000000000000
0.129322565016 0.315558609787 0.000000000000
0.117590073222 0.296350566074 0.000000000000
0.105857581429 0.277142522361 0.000000000000
0.111495627042 0.264223151127 0.000000000000
0.128866164448 0.270511823607 0.000000000000
0.146236701854 0.276800496086 0.000000000000
0.157969193647 0.296008539799 0.000000000000
0.152331148035 0.308927911032 0.000000000000
0.146693102422 0.321847282266 0.000000000000
0.123228118835 0.283431194840 0.000000000000
0.140598656241 0.289719867320 0.000000000000
0.134960610629 0.302639238553 0.000000000000
0.000000000000 0.205000000001 0.000000000000
0.089743248417 0.148877807294 0.000000000000
0.094125089635 0.257934478648 0.000000000000
0.022435812104 0.190969451824 0.000000000000
0.044871624208 0.176938903647 0.000000000000
0.067307436313 0.162908355470 0.000000000000
0.090838708722 0.176141975132 0.000000000000
0.091934169026 0.203406142971 0.000000000000
0.093029629331 0.230670310809 0.000000000000
0.070593817227 0.244700858986 0.000000000000
0.047062544818 0.231467239324 0.000000000000
0.023531272409 0.218233619662 0.000000000000
0.068402896617 0.190172523309 0.000000000000
0.069498356922 0.217436691147 0.000000000000
0.045967084513 0.204203071486 0.000000000000
0.164644661002 0.164644660879 0.000000000000
0.150000000000 0.200000000000 0.000000000000
0.089743248417 0.148877807294 0.000000000000
0.158426519430 0.172221488281 0.000000000000
0.153806023401 0.180865828317 0.000000000000
0.150960735987 0.190245483865 0.000000000000
0.134935812104 0.187219451823 0.000000000000
0.119871624208 0.174438903647 0.000000000000
0.104807436313 0.161658355470 0.000000000000
0.108468601563 0.152819520690 0.000000000000
0.127193954710 0.156761234086 0.000000000000
0.145919307856 0.160702947483 0.000000000000
0.136367685948 0.177558650835 0.000000000000
0.122218438063 0.165055646683 0.000000000000
0.140100577670 0.168546653044 0.000000000000
0.200000000000 0.250000000000 0.000000000000
0.223783463494 0.301037700553 0.000000000000
0.163607239260 0.283089168565 0.000000000000
0.205945865874 0.262759425138 0.000000000000
0.211891731747 0.275518850277 0.000000000000
0.217837597621 0.288278275415 0.000000000000
0.208739407436 0.296550567556 0.000000000000
0.193695351377 0.292063434559 0.000000000000
0.178651295319 0.287576301562 0.000000000000
0.172705429445 0.274816876424 0.000000000000
0.181803619630 0.266544584283 0.000000000000
0.190901809815 0.258272292141 0.000000000000
0.202793541562 0.283791142418 0.000000000000
0.187749485504 0.279304009421 0.000000000000
0.196847675689 0.271031717280 0.000000000000
0.223783463494 0.301037700553 0.000000000000
0.141055056809 0.334766653500 0.000000000000
0.163607239260 0.283089168565 0.000000000000
0.203101361823 0.309469938790 0.000000000000
0.182419260152 0.317902177026 0.000000000000
0.161737158480 0.326334415263 0.000000000000
0.146693102422 0.321847282266 0.000000000000
0.152331148035 0.308927911032 0.000000000000
0.157969193647 0.296008539799 0.000000000000
0.178651295319 0.287576301562 0.000000000000
0.193695351377 0.292063434559 0.000000000000
0.208739407436 0.296550567556 0.000000000000
0.167375204093 0.313415044029 0.000000000000
0.173013249706 0.300495672796 0.000000000000
0.188057305764 0.304982805793 0.000000000000
0.141055056809 0.334766653500 0.000000000000
0.000000000000 0.410000000000 0.000000000000
0.094125089635 0.257934478648 0.000000000000
0.105791292607 0.353574990125 0.000000000000
0.070527528405 0.372383326750 0.000000000000
0.035263764202 0.391191663375 0.000000000000
0.023531272409 0.371983619662 0.000000000000
0.047062544818 0.333967239324 0.000000000000
0.070593817227 0.295950858986 0.000000000000
0.105857581429 0.277142522361 0.000000000000
0.117590073222 0.296350566074 0.000000000000
0.129322565016 0.315558609787 0.000000000000
0.058795036611 0.353175283037 0.000000000000
0.082326309020 0.315158902699 0.000000000000
0.094058800813 0.334366946412 0.000000000000
0.000000000000 0.410000000000 0.000000000000
0.000000000000 0.205000000001 0.000000000000
0.094125089635 0.257934478648 0.000000000000
0.000000000000 0.358750000000 0.000000000000
0.000000000000 0.307500000000 0.000000000000
0.000000000000 0.256250000000 0.000000000000
0.023531272409 0.218233619662 0.000000000000
0.047062544818 0.231467239324 0.000000000000
0.070593817227 0.244700858986 0.000000000000
0.070593817227 0.295950858986 0.000000000000
0.047062544818 0.333967239324 0.000000000000
0.023531272409 0.371983619662 0.000000000000
0.023531272409 0.269483619662 0.000000000000
0.047062544818 0.282717239324 0.000000000000
0.023531272409 0.320733619662 0.000000000000
0.000000000000 0.205000000001 0.000000000000
0.000000000000 0.000000000000 0.000000000000
0.089743248417 0.148877807294 0.000000000000
0.000000000000 0.153750000000 0.000000000000
0.000000000000 0.102500000000 0.000000000000
0.000000000000 0.051250000000 0.000000000000
0.022435812104 0.037219451823 0.000000000000
0.044871624208 0.074438903647 0.000000000000
0.067307436313 0.111658355470 0.000000000000
0.067307436313 0.162908355470 0.000000000000
0.044871624208 0.176938903647 0.000000000000
0.022435812104 0.190969451824 0.000000000000
0.022435812104 0.088469451824 0.000000000000
0.044871624208 0.125688903647 0.000000000000
0.022435812104 0.139719451824 0.000000000000
0.164644661002 0.164644660879 0.000000000000
0.089743248417 0.148877807294 0.000000000000
0.151039468757 0.087915444092 0.000000000000
0.145919307856 0.160702947483 0.000000000000
0.127193954710 0.156761234086 0.000000000000
0.108468601563 0.152819520690 0.000000000000
0.105067303502 0.133637216493 0.000000000000
0.120391358587 0.118396625693 0.000000000000
0.135715413672 0.103156034892 0.000000000000
0.154440766818 0.107097748289 0.000000000000
0.157842064879 0.126280052485 0.000000000000
0.161243362941 0.145462356682 0.000000000000
0.123792656648 0.137578929890 0.000000000000
0.139116711733 0.122338339089 0.000000000000
0.142518009794 0.141520643286 0.000000000000
0.200000000000 0.250000000000 0.000000000000
0.231622776514 0.238729833533 0.000000000000
0.223783463494 0.301037700553 0.000000000000
0.208517251206 0.249269223983 0.000000000000
0.216785534301 0.247098257274 0.000000000000
0.224563158735 0.243550559502 0.000000000000
0.229662948259 0.254306800288 0.000000000000
0.227703120004 0.269883767043 0.000000000000
0.225743291749 0.285460733798 0.000000000000
0.217837597621 0.288278275415 0.000000000000
0.211891731747 0.275518850277 0.000000000000
0.205945865874 0.262759425138 0.000000000000
0.222423828817 0.258809269208 0.000000000000
0.220161834232 0.273723796148 0.000000000000
0.214400875052 0.261668601448 0.000000000000
0.226269332114 0.410000000000 0.000000000000
0.141055056809 0.334766653500 0.000000000000
0.223783463494 0.301037700553 0.000000000000
0.204965763288 0.391191663375 0.000000000000
0.183662194462 0.372383326750 0.000000000000
0.162358625636 0.353574990125 0.000000000000
0.161737158480 0.326334415263 0.000000000000
0.182419260152 0.317902177026 0.000000000000
0.203101361823 0.309469938790 0.000000000000
0.224404930649 0.328278275415 0.000000000000
[...]
POINT_DATA 1365

TENSORS Scaled_strain_rate float
0.587708280307 -0.315450533120 5.295001801943 0.000000000000 0.000000000000 0.000000000000 0.000000000000 0.000000000000 0.000000000000
26.484997869247 -26.191651409171 2.406715336525 0.000000000000 0.000000000000 0.000000000000 0.000000000000 0.000000000000 0.000000000000
-0.482418983362 -0.331496107474 -6.708084892071 0.000000000000 0.000000000000 0.000000000000 0.000000000000 0.000000000000 0.000000000000
5.614156695532 -5.494434849955 14.576866971228 0.000000000000 0.000000000000 0.000000000000 0.000000000000 0.000000000000 0.000000000000
12.803009499494 -12.681724714241 17.056541764874 0.000000000000 0.000000000000 0.000000000000 0.000000000000 0.000000000000 0.000000000000
20.322512858860 -20.214068011537 12.709577844324 0.000000000000 0.000000000000 0.000000000000 0.000000000000 0.000000000000 0.000000000000
2.171818585806 -2.161027536398 -7.097358444128 0.000000000000 0.000000000000 0.000000000000 0.000000000000 0.000000000000 0.000000000000
0.148712037185 0.054554749949 -5.362183631236 0.000000000000 0.000000000000 0.000000000000 0.000000000000 0.000000000000 0.000000000000
1.038864461634 -2.007326970982 -3.522782149667 0.000000000000 0.000000000000 0.000000000000 0.000000000000 0.000000000000 0.000000000000
0.326246191856 0.602052388421 -2.566069165577 0.000000000000 0.000000000000 0.000000000000 0.000000000000 0.000000000000 0.000000000000
2.822133868924 -2.208664000573 -4.602847459803 0.000000000000 0.000000000000 0.000000000000 0.000000000000 0.000000000000 0.000000000000
8.832205662744 -8.763644711824 -4.429336928619 0.000000000000 0.000000000000 0.000000000000 0.000000000000 0.000000000000 0.000000000000
3.781450748100 -3.746020731414 -7.970240340931 0.000000000000 0.000000000000 0.000000000000 0.000000000000 0.000000000000 0.000000000000
1.487842063899 -1.481330034185 -6.702823949642 0.000000000000 0.000000000000 0.000000000000 0.000000000000 0.000000000000 0.000000000000
6.092836356263 -6.181227657638 -7.299804135068 0.000000000000 0.000000000000 0.000000000000 0.000000000000 0.000000000000 0.000000000000
-1.610092576526 1.949699465882 -1.232781054540 0.000000000000 0.000000000000 0.000000000000 0.000000000000 0.000000000000 0.000000000000
25.384339707341 -25.604024333640 -0.213515285224 0.000000000000 0.000000000000 0.000000000000 0.000000000000 0.000000000000 0.000000000000
-3.053234225671 2.856621286603 -0.097048783744 0.000000000000 0.000000000000 0.000000000000 0.000000000000 0.000000000000 0.000000000000
0.877434524818 -0.130956157949 -3.553826695351 0.000000000000 0.000000000000 0.000000000000 0.000000000000 0.000000000000 0.000000000000
-0.592388790612 0.632026784362 -5.811588539575 0.000000000000 0.000000000000 0.000000000000 0.000000000000 0.000000000000 0.000000000000
2.671253172078 -2.705413044808 -6.320128512193 0.000000000000 0.000000000000 0.000000000000 0.000000000000 0.000000000000 0.000000000000
9.687001620099 -10.026635286220 -3.647141286275 0.000000000000 0.000000000000 0.000000000000 0.000000000000 0.000000000000 0.000000000000
0.675529934894 -0.820582448476 -2.348298514732 0.000000000000 0.000000000000 0.000000000000 0.000000000000 0.000000000000 0.000000000000
-2.994356717163 2.738213072841 -0.528733513303 0.000000000000 0.000000000000 0.000000000000 0.000000000000 0.000000000000 0.000000000000
-2.553987509205 2.686655831362 -1.929989891245 0.000000000000 0.000000000000 0.000000000000 0.000000000000 0.000000000000 0.000000000000
-1.285978753363 1.504826133817 -2.900436514622 0.000000000000 0.000000000000 0.000000000000 0.000000000000 0.000000000000 0.000000000000
-0.568462751618 0.913963853894 -2.351765894634 0.000000000000 0.000000000000 0.000000000000 0.000000000000 0.000000000000 0.000000000000
-1.601427842086 1.649211201860 -5.385458548776 0.000000000000 0.000000000000 0.000000000000 0.000000000000 0.000000000000 0.000000000000
-2.894298642773 2.913577865855 -3.471313465457 0.000000000000 0.000000000000 0.000000000000 0.000000000000 0.000000000000 0.000000000000
-1.055565172853 0.887775704528 -4.612409239971 0.000000000000 0.000000000000 0.000000000000 0.000000000000 0.000000000000 0.000000000000
1.094244048386 -0.320493293681 1.396672747397 0.000000000000 0.000000000000 0.000000000000 0.000000000000 0.000000000000 0.000000000000
6.179972290720 -6.489978234211 0.450608155388 0.000000000000 0.000000000000 0.000000000000 0.000000000000 0.000000000000 0.000000000000
0.766488312645 0.073178188716 -1.496271494032 0.000000000000 0.000000000000 0.000000000000 0.000000000000 0.000000000000 0.000000000000
1.163157005326 -1.403428979121 3.434495307701 0.000000000000 0.000000000000 0.000000000000 0.000000000000 0.000000000000 0.000000000000
3.444916810689 -3.759473442225 5.068586381309 0.000000000000 0.000000000000 0.000000000000 0.000000000000 0.000000000000 0.000000000000
7.472599506713 -7.615107808697 3.738742463952 0.000000000000 0.000000000000 0.000000000000 0.000000000000 0.000000000000 0.000000000000
7.405246325370 -7.496075635152 -4.236280278620 0.000000000000 0.000000000000 0.000000000000 0.000000000000 0.000000000000 0.000000000000
3.185612051749 -3.451130910867 -5.748805775412 0.000000000000 0.000000000000 0.000000000000 0.000000000000 0.000000000000 0.000000000000
0.807271147073 -0.981842442895 -3.858198815817 0.000000000000 0.000000000000 0.000000000000 0.000000000000 0.000000000000 0.000000000000
1.941016440643 -1.704228748869 -1.981767929414 0.000000000000 0.000000000000 0.000000000000 0.000000000000 0.000000000000 0.000000000000
2.605152895808 -2.411898241502 -0.292838178341 0.000000000000 0.000000000000 0.000000000000 0.000000000000 0.000000000000 0.000000000000
2.186298125758 -1.907471984777 1.494292052079 0.000000000000 0.000000000000 0.000000000000 0.000000000000 0.000000000000 0.000000000000
6.030186514404 -5.925088919923 -0.496628725108 0.000000000000 0.000000000000 0.000000000000 0.000000000000 0.000000000000 0.000000000000
3.441700420152 -3.476212257468 -2.255448948712 0.000000000000 0.000000000000 0.000000000000 0.000000000000 0.000000000000 0.000000000000
3.647965951132 -3.669300611653 1.376915737685 0.000000000000 0.000000000000 0.000000000000 0.000000000000 0.000000000000 0.000000000000
27.383486686301 -26.438979319611 -2.206526734691 0.000000000000 0.000000000000 0.000000000000 0.000000000000 0.000000000000 0.000000000000
-0.742648399611 0.429341768927 -22.815941783322 0.000000000000 0.000000000000 0.000000000000 0.000000000000 0.000000000000 0.000000000000
-2.311350495488 2.473431587379 1.118530270034 0.000000000000 0.000000000000 0.000000000000 0.000000000000 0.000000000000 0.000000000000
24.548854560460 -24.845958171325 -14.840292070920 0.000000000000 0.000000000000 0.000000000000 0.000000000000 0.000000000000 0.000000000000
17.850150824796 -17.811685810612 -24.349333293536 0.000000000000 0.000000000000 0.000000000000 0.000000000000 0.000000000000 0.000000000000
8.396901923716 -8.332500479899 -27.602627956877 0.000000000000 0.000000000000 0.000000000000 0.000000000000 0.000000000000 0.000000000000
7.708602178461 -7.687080835806 -12.536235830483 0.000000000000 0.000000000000 0.000000000000 0.000000000000 0.000000000000 0.000000000000
3.092060146899 -3.315637180269 -3.399826244632 0.000000000000 0.000000000000 0.000000000000 0.000000000000 0.000000000000 0.000000000000
-2.600466474812 2.034683573335 0.251597290887 0.000000000000 0.000000000000 0.000000000000 0.000000000000 0.000000000000 0.000000000000
-2.128960113055 2.422681519469 -0.831355630439 0.000000000000 0.000000000000 0.000000000000 0.000000000000 0.000000000000 0.000000000000
0.565602488151 -0.893543587364 -3.628482824107 0.000000000000 0.000000000000 0.000000000000 0.000000000000 0.000000000000 0.000000000000
9.799105983467 -9.497381327740 -6.090693911346 0.000000000000 0.000000000000 0.000000000000 0.000000000000 0.000000000000 0.000000000000
8.233028382209 -8.203227382086 -9.111550322340 0.000000000000 0.000000000000 0.000000000000 0.000000000000 0.000000000000 0.000000000000
1.302859813198 -1.256754915977 -1.722192272031 0.000000000000 0.000000000000 0.000000000000 0.000000000000 0.000000000000 0.000000000000
8.548820944844 -8.579647427726 -6.878322901613 0.000000000000 0.000000000000 0.000000000000 0.000000000000 0.000000000000 0.000000000000
-1.741609926762 1.749842862859 1.751993226882 0.000000000000 0.000000000000 0.000000000000 0.000000000000 0.000000000000 0.000000000000
0.718891192444 -1.544991602367 -1.371200196996 0.000000000000 0.000000000000 0.000000000000 0.000000000000 0.000000000000 0.000000000000
-3.360908831125 3.354032436814 0.042455570660 0.000000000000 0.000000000000 0.000000000000 0.000000000000 0.000000000000 0.000000000000
-1.611456128022 1.574107034625 0.705903306709 0.000000000000 0.000000000000 0.000000000000 0.000000000000 0.000000000000 0.000000000000
-1.389339867573 1.386672804986 -0.494767992198 0.000000000000 0.000000000000 0.000000000000 0.000000000000 0.000000000000 0.000000000000
-0.631165580929 0.823009359935 -1.789264659387 0.000000000000 0.000000000000 0.000000000000 0.000000000000 0.000000000000 0.000000000000
-0.634602354905 0.184520767982 -2.335018614662 0.000000000000 0.000000000000 0.000000000000 0.000000000000 0.000000000000 0.000000000000
-1.478626288778 1.467988833490 -2.582339421903 0.000000000000 0.000000000000 0.000000000000 0.000000000000 0.000000000000 0.000000000000
-2.580653249119 2.584066748137 -1.754289709139 0.000000000000 0.000000000000 0.000000000000 0.000000000000 0.000000000000 0.000000000000
-2.672762199746 2.691932010550 0.708616701410 0.000000000000 0.000000000000 0.000000000000 0.000000000000 0.000000000000 0.000000000000
-2.200200855541 2.206941772020 1.067052280904 0.000000000000 0.000000000000 0.000000000000 0.000000000000 0.000000000000 0.000000000000
-1.958289150058 1.870790953605 1.372838604686 0.000000000000 0.000000000000 0.000000000000 0.000000000000 0.000000000000 0.000000000000
-1.567449549429 1.610606124490 -1.402746679003 0.000000000000 0.000000000000 0.000000000000 0.000000000000 0.000000000000 0.000000000000
-2.307772360602 2.314594193720 -0.640210012291 0.000000000000 0.000000000000 0.000000000000 0.000000000000 0.000000000000 0.000000000000
-1.952411762375 1.945330666215 0.089708368050 0.000000000000 0.000000000000 0.000000000000 0.000000000000 0.000000000000 0.000000000000
-0.087510956623 0.031966847773 -0.073415685337 0.000000000000 0.000000000000 0.000000000000 0.000000000000 0.000000000000 0.000000000000
0.204939881724 -0.400590644510 1.712294994736 0.000000000000 0.000000000000 0.000000000000 0.000000000000 0.000000000000 0.000000000000
-0.097561292112 -0.061216684856 -1.964200444826 0.000000000000 0.000000000000 0.000000000000 0.000000000000 0.000000000000 0.000000000000
0.408428809196 -0.391874947050 -0.091781295533 0.000000000000 0.000000000000 0.000000000000 0.000000000000 0.000000000000 0.000000000000
0.671449268095 -0.761320455161 -0.013134068703 0.000000000000 0.000000000000 0.000000000000 0.000000000000 0.000000000000 0.000000000000
0.889773771024 -0.932058965160 0.488196915170 0.000000000000 0.000000000000 0.000000000000 0.000000000000 0.000000000000 0.000000000000
1.789880645476 -2.000720136577 1.342907004544 0.000000000000 0.000000000000 0.000000000000 0.000000000000 0.000000000000 0.000000000000
2.316707421439 -2.532457137934 -0.308785506786 0.000000000000 0.000000000000 0.000000000000 0.000000000000 0.000000000000 0.000000000000
1.599799878895 -1.790923525206 -1.873395668261 0.000000000000 0.000000000000 0.000000000000 0.000000000000 0.000000000000 0.000000000000
0.736159225733 -0.751372461729 -0.804255470765 0.000000000000 0.000000000000 0.000000000000 0.000000000000 0.000000000000 0.000000000000
0.632553118148 -0.710764617938 -0.230541041232 0.000000000000 0.000000000000 0.000000000000 0.000000000000 0.000000000000 0.000000000000
0.408249354021 -0.400294395470 -0.096090355343 0.000000000000 0.000000000000 0.000000000000 0.000000000000 0.000000000000 0.000000000000
1.533226535035 -1.490959634248 0.219011542200 0.000000000000 0.000000000000 0.000000000000 0.000000000000 0.000000000000 0.000000000000
1.471329026623 -1.435784558270 -0.613980275635 0.000000000000 0.000000000000 0.000000000000 0.000000000000 0.000000000000 0.000000000000
0.830473281632 -0.844331909891 -0.122531447115 0.000000000000 0.000000000000 0.000000000000 0.000000000000 0.000000000000 0.000000000000
25.747180866176 -26.527232246180 -1.988470405039 0.000000000000 0.000000000000 0.000000000000 0.000000000000 0.000000000000 0.000000000000
0.694602436739 -0.237291709138 -4.039947056204 0.000000000000 0.000000000000 0.000000000000 0.000000000000 0.000000000000 0.000000000000
0.283470983061 -1.078486170383 6.709289826265 0.000000000000 0.000000000000 0.000000000000 0.000000000000 0.000000000000 0.000000000000
19.398500009106 -19.222284828687 -12.267931068144 0.000000000000 0.000000000000 0.000000000000 0.000000000000 0.000000000000 0.000000000000
12.024918270609 -11.899375496388 -15.979553794130 0.000000000000 0.000000000000 0.000000000000 0.000000000000 0.000000000000 0.000000000000
5.214204301926 -5.102763881824 -13.125607874151 0.000000000000 0.000000000000 0.000000000000 0.000000000000 0.000000000000 0.000000000000
8.948970162302 -8.819329099217 3.659118752261 0.000000000000 0.000000000000 0.000000000000 0.000000000000 0.000000000000 0.000000000000
3.231088644216 -2.557179971388 3.885720521343 0.000000000000 0.000000000000 0.000000000000 0.000000000000 0.000000000000 0.000000000000
0.628578190351 0.376309749496 2.278473855331 0.000000000000 0.000000000000 0.000000000000 0.000000000000 0.000000000000 0.000000000000
1.419374714736 -2.527951329016 3.116555329285 0.000000000000 0.000000000000 0.000000000000 0.000000000000 0.000000000000 0.000000000000
0.688331443037 -0.554004120994 5.331344404757 0.000000000000 0.000000000000 0.000000000000 0.000000000000 0.000000000000 0.000000000000
2.706807154694 -2.759048349748 6.817831347550 0.000000000000 0.000000000000 0.000000000000 0.000000000000 0.000000000000 0.000000000000
6.313742561901 -6.438268895973 6.918681595186 0.000000000000 0.000000000000 0.000000000000 0.000000000000 0.000000000000 0.000000000000
2.119428741003 -2.119528276118 6.244042712080 0.000000000000 0.000000000000 0.000000000000 0.000000000000 0.000000000000 0.000000000000
4.106557599961 -4.044945694501 7.709497709595 0.000000000000 0.000000000000 0.000000000000 0.000000000000 0.000000000000 0.000000000000
1.016831133972 -0.568151162543 -21.846432076315 0.000000000000 0.000000000000 0.000000000000 0.000000000000 0.000000000000 0.000000000000
0.341409883573 -0.601283106605 1.557906629939 0.000000000000 0.000000000000 0.000000000000 0.000000000000 0.000000000000 0.000000000000
-2.268713976716 2.496221527021 -0.420363915057 0.000000000000 0.000000000000 0.000000000000 0.000000000000 0.000000000000 0.000000000000
4.000145660357 -3.923056450852 -11.494350693824 0.000000000000 0.000000000000 0.000000000000 0.000000000000 0.000000000000 0.000000000000
3.412238530715 -3.337261499129 -5.378503063336 0.000000000000 0.000000000000 0.000000000000 0.000000000000 0.000000000000 0.000000000000
1.710339015495 -1.551497531640 -1.084387386239 0.000000000000 0.000000000000 0.000000000000 0.000000000000 0.000000000000 0.000000000000
-0.109368884587 0.037679969732 1.863432233394 0.000000000000 0.000000000000 0.000000000000 0.000000000000 0.000000000000 0.000000000000
-0.902836714730 0.733888323638 1.948631825761 0.000000000000 0.000000000000 0.000000000000 0.000000000000 0.000000000000 0.000000000000
-1.892364012721 1.655350824122 1.389787397210 0.000000000000 0.000000000000 0.000000000000 0.000000000000 0.000000000000 0.000000000000
-1.920063026119 2.040572796960 0.989067693236 0.000000000000 0.000000000000 0.000000000000 0.000000000000 0.000000000000 0.000000000000
3.243064296647 -3.151641748389 -3.154712388031 0.000000000000 0.000000000000 0.000000000000 0.000000000000 0.000000000000 0.000000000000
7.026797317764 -7.002638470082 -12.170921720085 0.000000000000 0.000000000000 0.000000000000 0.000000000000 0.000000000000 0.000000000000
1.309080775133 -1.291387726866 -0.083121682264 0.000000000000 0.000000000000 0.000000000000 0.000000000000 0.000000000000 0.000000000000
0.068270512570 -0.044041425429 0.792230713101 0.000000000000 0.000000000000 0.000000000000 0.000000000000 0.000000000000 0.000000000000
3.945906775645 -3.991141688479 -4.515915643533 0.000000000000 0.000000000000 0.000000000000 0.000000000000 0.000000000000 0.000000000000
0.296340303234 -0.661885099262 1.132221153484 0.000000000000 0.000000000000 0.000000000000 0.000000000000 0.000000000000 0.000000000000
-1.666849257718 1.683727404352 1.743985858993 0.000000000000 0.000000000000 0.000000000000 0.000000000000 0.000000000000 0.000000000000
-3.073259622580 3.282596587697 0.381966663428 0.000000000000 0.000000000000 0.000000000000 0.000000000000 0.000000000000 0.000000000000
-1.208547595935 1.220149118598 2.840134158368 0.000000000000 0.000000000000 0.000000000000 0.000000000000 0.000000000000 0.000000000000
-1.964179249323 1.956673645405 2.505088736601 0.000000000000 0.000000000000 0.000000000000 0.000000000000 0.000000000000 0.000000000000
-1.959675554873 1.902712419719 1.803154809492 0.000000000000 0.000000000000 0.000000000000 0.000000000000 0.000000000000 0.000000000000
-1.805806429662 1.876015023921 1.402403429662 0.000000000000 0.000000000000 0.000000000000 0.000000000000 0.000000000000 0.000000000000
-2.091691362025 2.125719156166 1.013113019942 0.000000000000 0.000000000000 0.000000000000 0.000000000000 0.000000000000 0.000000000000
-2.598370565632 2.644840463103 0.669699243527 0.000000000000 0.000000000000 0.000000000000 0.000000000000 0.000000000000 0.000000000000
-2.243109437215 2.369641065365 1.732416895486 0.000000000000 0.000000000000 0.000000000000 0.000000000000 0.000000000000 0.000000000000
-1.055057294812 1.229631745809 2.252354686458 0.000000000000 0.000000000000 0.000000000000 0.000000000000 0.000000000000 0.000000000000
-0.062426120385 0.115928328417 1.979519783660 0.000000000000 0.000000000000 0.000000000000 0.000000000000 0.000000000000 0.000000000000
-2.262040608512 2.265428969462 1.844226163890 0.000000000000 0.000000000000 0.000000000000 0.000000000000 0.000000000000 0.000000000000
-2.509400464946 2.468002951144 1.888768871288 0.000000000000 0.000000000000 0.000000000000 0.000000000000 0.000000000000 0.000000000000
-1.873307257701 1.866518045456 2.654475347094 0.000000000000 0.000000000000 0.000000000000 0.000000000000 0.000000000000 0.000000000000
-1.670331212078 1.677225593969 1.615891453237 0.000000000000 0.000000000000 0.000000000000 0.000000000000 0.000000000000 0.000000000000
0.141585066299 -0.122169159532 2.987967630766 0.000000000000 0.000000000000 0.000000000000 0.000000000000 0.000000000000 0.000000000000
0.451767531799 -0.535776718203 -1.875452816208 0.000000000000 0.000000000000 0.000000000000 0.000000000000 0.000000000000 0.000000000000
-1.159983437244 1.151160194518 1.859736778981 0.000000000000 0.000000000000 0.000000000000 0.000000000000 0.000000000000 0.000000000000
-0.726009995193 0.736738928464 2.290957629832 0.000000000000 0.000000000000 0.000000000000 0.000000000000 0.000000000000 0.000000000000
-0.286015241151 0.306095400000 2.712246772541 0.000000000000 0.000000000000 0.000000000000 0.000000000000 0.000000000000 0.000000000000
-0.244895936516 0.213244742036 2.151748376510 0.000000000000 0.000000000000 0.000000000000 0.000000000000 0.000000000000 0.000000000000
-0.441333125550 0.453007630534 1.336278983387 0.000000000000 0.000000000000 0.000000000000 0.000000000000 0.000000000000 0.000000000000
-0.383395839853 0.402855050415 0.201047741000 0.000000000000 0.000000000000 0.000000000000 0.000000000000 0.000000000000 0.000000000000
-0.636725989071 0.653088859636 -1.466289674738 0.000000000000 0.000000000000 0.000000000000 0.000000000000 0.000000000000 0.000000000000