# vtk DataFile Version 3.0
My problem

ASCII

DATASET UNSTRUCTURED_GRID

POINTS 219 float
0.248989794856 0.190000000000 0.000000000000
0.600000000000 0.190000000000 0.000000000000
0.600000000000 0.210000000000 0.000000000000
0.248989794856 0.210000000000 0.000000000000
0.150000000000 0.200000000000 0.000000000000
0.200000000000 0.150000000000 0.000000000000
0.200000000000 0.250000000000 0.000000000000
0.000000000000 0.000000000000 0.000000000000
2.500000000000 0.000000000000 0.000000000000
2.500000000000 0.410000000000 0.000000000000
0.000000000000 0.410000000000 0.000000000000
0.336742346142 0.190000000000 0.000000000000
0.424494897427 0.190000000000 0.000000000000
0.512247448714 0.190000000000 0.000000000000
0.000000000000 0.205000000001 0.000000000000
0.811444632134 0.200000000000 0.000000000000
0.141055056809 0.334766653500 0.000000000000
0.312224618120 0.326967980512 0.000000000000
0.310890093866 0.077914909499 0.000000000000
0.512247448714 0.210000000000 0.000000000000
0.424494897428 0.210000000000 0.000000000000
0.336742346142 0.210000000000 0.000000000000
0.089743248417 0.148877807294 0.000000000000
0.094125089635 0.257934478648 0.000000000000
0.292866070499 0.256137002944 0.000000000000
0.292866070499 0.143862997341 0.000000000000
0.164644661002 0.164644660879 0.000000000000
0.234807152693 0.100927444057 0.000000000000
0.151039468757 0.087915444092 0.000000000000
0.231622776688 0.161270166609 0.000000000000
0.583493562250 0.334947355369 0.000000000000
0.223783463494 0.301037700553 0.000000000000
0.231622776514 0.238729833533 0.000000000000
0.582688006490 0.070232401107 0.000000000000
0.488198414358 0.119322922687 0.000000000000
0.164644660879 0.235355338998 0.000000000000
0.488332673692 0.283810842461 0.000000000000
0.672039863667 0.286432887924 0.000000000000
0.226269332004 0.000000000000 0.000000000000
0.473017787376 0.000000000000 0.000000000000
0.742098886350 0.000000000000 0.000000000000
1.035533905597 0.000000000000 0.000000000000
1.355527063570 0.000000000000 0.000000000000
1.704482076286 0.000000000000 0.000000000000
2.085020215518 0.000000000000 0.000000000000
1.191311797019 0.204574829794 0.000000000000
0.671092828006 0.110483630153 0.000000000000
0.163607239260 0.283089168565 0.000000000000
1.530004569928 0.204999999668 0.000000000000
2.260798596372 0.204999999921 0.000000000000
0.387701601611 0.120183471588 0.000000000000
0.387946398916 0.282819304320 0.000000000000
1.894751145902 0.204999999527 0.000000000000
2.500000000000 0.204999999999 0.000000000000
0.571222709665 0.265038217151 0.000000000000
0.670915464761 0.199383303615 0.000000000000
2.085020216813 0.410000000000 0.000000000000
1.704482077305 0.410000000000 0.000000000000
1.355527064349 0.410000000000 0.000000000000
1.035533906169 0.410000000000 0.000000000000
0.742098886744 0.410000000000 0.000000000000
0.473017787617 0.410000000000 0.000000000000
0.226269332114 0.410000000000 0.000000000000
0.570845339514 0.136007790789 0.000000000000
1.894751147059 0.410000000000 0.000000000000
1.530004570827 0.410000000000 0.000000000000
1.195530485260 0.410000000000 0.000000000000
0.888816396456 0.410000000000 0.000000000000
0.607558337180 0.410000000000 0.000000000000
0.349643559866 0.410000000000 0.000000000000
0.113134666057 0.410000000000 0.000000000000
0.292866070499 0.190000000000 0.000000000000
0.000000000000 0.307500000000 0.000000000000
0.000000000000 0.102500000000 0.000000000000
0.380618621784 0.190000000000 0.000000000000
0.468371173071 0.190000000000 0.000000000000
0.556123724357 0.190000000000 0.000000000000
0.600000000000 0.200000000000 0.000000000000
0.556123724357 0.210000000000 0.000000000000
0.468371173071 0.210000000000 0.000000000000
0.380618621785 0.210000000000 0.000000000000
0.292866070499 0.210000000000 0.000000000000
0.153806023399 0.180865828321 0.000000000000
0.180865828451 0.153806023346 0.000000000000
0.216785534457 0.152901742782 0.000000000000
0.242789572381 0.174133950912 0.000000000000
0.242789572300 0.225866049222 0.000000000000
0.216785534276 0.247098257283 0.000000000000
0.180865828321 0.246193976601 0.000000000000
0.153806023346 0.219134171549 0.000000000000
0.113134666002 0.000000000000 0.000000000000
0.349643559690 0.000000000000 0.000000000000
0.607558336863 0.000000000000 0.000000000000
0.888816395973 0.000000000000 0.000000000000
1.195530484583 0.000000000000 0.000000000000
1.530004569928 0.000000000000 0.000000000000
1.894751145902 0.000000000000 0.000000000000
2.292510107759 0.000000000000 0.000000000000
2.500000000000 0.102500000000 0.000000000000
2.500000000000 0.307500000000 0.000000000000
2.292510108406 0.410000000000 0.000000000000
0.129384875257 0.246644908823 0.000000000000
0.122062544818 0.228967239324 0.000000000000
0.157842064879 0.126280052485 0.000000000000
0.175519734378 0.118957722046 0.000000000000
0.227703120004 0.269883767043 0.000000000000
0.211891731747 0.275518850277 0.000000000000
0.217403576346 0.125463722028 0.000000000000
0.233214964691 0.131098805333 0.000000000000
2.380399298186 0.102499999961 0.000000000000
2.172909405945 0.102499999961 0.000000000000
2.172909406593 0.307499999961 0.000000000000
2.380399298186 0.307499999961 0.000000000000
0.635546414003 0.150241815076 0.000000000000
0.585422669757 0.163003895395 0.000000000000
0.620969083760 0.123245710471 0.000000000000
0.636019931834 0.248216443962 0.000000000000
0.621631286666 0.275735552538 0.000000000000
0.585611354832 0.237519108575 0.000000000000
2.380399298186 0.204999999960 0.000000000000
0.923489269152 0.305000000000 0.000000000000
1.001378214577 0.202287414897 0.000000000000
1.113422851594 0.307287414897 0.000000000000
0.923489268865 0.100000000000 0.000000000000
1.113422851308 0.102287414897 0.000000000000
0.635457732381 0.194691651808 0.000000000000
0.635457732381 0.204691651808 0.000000000000
0.044871624208 0.074438903647 0.000000000000
0.044871624208 0.176938903647 0.000000000000
0.662393446420 0.035116200554 0.000000000000
0.706595857178 0.055241815076 0.000000000000
0.626890417248 0.090358015630 0.000000000000
0.047062544818 0.231467239324 0.000000000000
0.047062544818 0.333967239324 0.000000000000
0.662796224497 0.372473677684 0.000000000000
0.627766712958 0.310690121646 0.000000000000
0.707069375205 0.348216443962 0.000000000000
0.119871624208 0.174438903647 0.000000000000
0.091934169026 0.203406142971 0.000000000000
0.164125950070 0.259222253782 0.000000000000
0.128866164448 0.270511823607 0.000000000000
0.262244423593 0.152566581975 0.000000000000
0.270927932677 0.166931498671 0.000000000000
0.776771759439 0.305000000000 0.000000000000
0.314804208320 0.166931498671 0.000000000000
0.391953940621 0.038957454750 0.000000000000
0.430359694494 0.060091735794 0.000000000000
0.349295847739 0.099049190544 0.000000000000
0.270927932677 0.233068501472 0.000000000000
0.262244423507 0.247433418239 0.000000000000
0.314804208320 0.233068501472 0.000000000000
0.776771759242 0.100000000000 0.000000000000
0.127193954710 0.156761234086 0.000000000000
0.120391358587 0.118396625693 0.000000000000
0.070527528405 0.372383326750 0.000000000000
0.117590073222 0.296350566074 0.000000000000
0.193695351377 0.292063434559 0.000000000000
0.181803619630 0.266544584283 0.000000000000
0.392621202868 0.368483990256 0.000000000000
0.350085508518 0.304893642416 0.000000000000
0.430482093266 0.346409652160 0.000000000000
0.192923310725 0.094421444074 0.000000000000
0.263836611596 0.122395220699 0.000000000000
0.541546394114 0.163003895395 0.000000000000
0.258324766996 0.278587351749 0.000000000000
0.075519734378 0.043957722046 0.000000000000
0.541735079189 0.237519108575 0.000000000000
0.671477664214 0.242908095770 0.000000000000
0.671004146384 0.154933466884 0.000000000000
1.273419430684 0.307287414897 0.000000000000
1.273419430295 0.102287414897 0.000000000000
1.360658183474 0.204787414731 0.000000000000
1.442765817139 0.307499999834 0.000000000000
1.442765816749 0.102499999834 0.000000000000
0.480675230654 0.346905421231 0.000000000000
0.438139536304 0.283315073391 0.000000000000
1.617243323616 0.307499999834 0.000000000000
1.617243323107 0.102499999834 0.000000000000
1.712377857915 0.204999999598 0.000000000000
1.799616611603 0.307499999764 0.000000000000
1.799616611094 0.102499999764 0.000000000000
0.480608100867 0.059661461344 0.000000000000
0.437950007985 0.119753197138 0.000000000000
1.989885681358 0.307499999764 0.000000000000
1.989885680710 0.102499999764 0.000000000000
0.182419260152 0.317902177026 0.000000000000
0.152331148035 0.308927911032 0.000000000000
0.576766673002 0.103120095948 0.000000000000
0.577358135957 0.299992786260 0.000000000000
0.500290061203 0.246905421231 0.000000000000
0.456413785560 0.246905421231 0.000000000000
0.456346655893 0.154661461344 0.000000000000
0.500222931536 0.154661461344 0.000000000000
0.741742247901 0.243216443962 0.000000000000
0.741268730070 0.155241815076 0.000000000000
2.077774871137 0.204999999724 0.000000000000
0.741180048448 0.199691651808 0.000000000000
0.362221973876 0.155091735794 0.000000000000
0.406098249519 0.155091735794 0.000000000000
0.406220648172 0.246409652160 0.000000000000
0.362344372529 0.246409652160 0.000000000000
0.340283836055 0.132023234465 0.000000000000
0.340406234708 0.269478153632 0.000000000000
0.529521876936 0.127665356738 0.000000000000
0.529777691678 0.274424529806 0.000000000000
0.183662194462 0.372383326750 0.000000000000
0.225026397804 0.355518850277 0.000000000000
0.268579712935 0.038957454750 0.000000000000
0.272848623279 0.089421176778 0.000000000000
0.230538242349 0.050463722028 0.000000000000
0.269246975117 0.368483990256 0.000000000000
0.268004040807 0.314002840533 0.000000000000
0.188654400380 0.043957722046 0.000000000000
0.301878082182 0.110888953420 0.000000000000
0.302545344309 0.291552491728 0.000000000000
0.535443210424 0.094777661897 0.000000000000
0.528255674933 0.372473677684 0.000000000000
0.535913117971 0.309379098915 0.000000000000
0.527852896933 0.035116200554 0.000000000000

CELLS 91 637
6 4 35 23 89 101 102
6 23 35 47 101 139 140
6 22 4 23 137 102 138
6 35 6 47 88 157 139
6 16 23 47 155 140 186
6 14 22 23 128 138 132
6 26 4 22 82 137 152
6 6 31 47 106 156 157
6 31 16 47 185 186 156
6 16 10 23 154 133 155
6 10 14 23 72 132 133
6 14 7 22 73 127 128
6 26 22 28 152 153 103
6 6 32 31 87 105 106
6 62 16 31 205 185 206
6 62 10 16 70 154 205
6 22 7 28 127 165 153
6 5 26 28 83 103 104
6 32 24 31 149 164 105
6 17 62 31 210 206 211
6 7 38 28 90 212 165
6 27 5 28 107 104 161
6 24 17 31 214 211 164
6 32 3 24 86 148 149
6 61 62 17 69 210 158
6 38 27 28 209 161 212
6 29 5 27 84 107 108
6 17 24 51 214 202 159
6 3 21 24 81 150 148
6 61 17 51 158 159 160
6 38 18 27 207 208 209
6 25 29 27 141 108 162
6 24 21 51 150 200 202
6 36 61 51 174 160 175
6 18 25 27 213 162 208
6 38 39 18 91 145 207
6 0 29 25 85 141 142
6 21 20 51 80 199 200
6 20 36 51 190 175 199
6 30 61 36 216 174 217
6 25 18 50 213 147 201
6 18 39 50 145 146 147
6 11 0 25 71 142 144
6 20 19 36 79 189 190
6 30 36 54 217 204 188
6 60 61 30 68 216 134
6 11 25 50 144 201 197
6 39 34 50 181 182 146
6 36 19 54 189 166 204
6 37 30 54 135 188 117
6 60 30 37 134 135 136
6 12 11 50 74 197 198
6 34 12 50 191 198 182
6 39 33 34 218 215 181
6 19 2 54 78 118 166
6 2 37 54 116 117 118
6 15 60 37 143 136 193
6 13 12 34 75 191 192
6 34 33 63 215 187 203
6 39 40 33 92 129 218
6 37 2 55 116 126 167
6 15 37 55 193 167 196
6 59 60 15 67 143 120
6 13 34 63 192 203 163
6 33 46 63 131 115 187
6 33 40 46 129 130 131
6 2 1 55 77 125 126
6 46 15 55 194 196 168
6 59 15 45 120 121 122
6 1 13 63 76 163 114
6 46 1 63 113 114 115
6 40 15 46 151 194 130
6 1 46 55 113 168 125
6 15 41 45 123 124 121
6 58 59 45 66 122 169
6 40 41 15 93 123 151
6 41 42 45 94 170 124
6 58 45 48 169 171 172
6 45 42 48 170 173 171
6 57 58 48 65 172 176
6 42 43 48 95 177 173
6 57 48 52 176 178 179
6 48 43 52 177 180 178
6 56 57 52 64 179 183
6 43 44 52 96 184 180
6 49 56 52 111 183 195
6 44 49 52 110 195 184
6 9 56 49 100 111 112
6 44 8 49 97 109 110
6 53 9 49 99 112 119
6 8 53 49 98 119 109

CELL_TYPES 91
69
69
69
69
69
69
69
69
69
69
69
69
69
69
69
69
69
69
69
69
69
69
69
69
69
69
69
69
69
69
69
69
69
69
69
69
69
69
69
69
69
69
69
69
69
69
69
69
69
69
69
69
69
69
69
69
69
69
69
69
69
69
69
69
69
69
69
69
69
69
69
69
69
69
69
69
69
69
69
69
69
69
69
69
69
69
69
69
69
69
69

POINT_DATA 219

VECTORS Displacement float
0.000002562889 0.000217421940 0.000000000000
-0.001565789628 -0.016378662398 0.000000000000
-0.004084993848 -0.016546445976 0.000000000000
0.000070454457 0.000222657494 0.000000000000
0.000000065520 0.000000391925 0.000000000000
0.000000081981 0.000006515318 0.000000000000
0.000002094304 0.000006661261 0.000000000000
0.000000004723 -0.000000014061 0.000000000000
-0.000000000017 -0.000000000023 0.000000000000
-0.000000000048 -0.000000000027 0.000000000000
-0.000000007453 -0.000000012208 0.000000000000
-0.002998393545 -0.012885921645 0.000000000000
-0.003105677976 -0.027764018864 0.000000000000
-0.001415690581 -0.026605878106 0.000000000000
-0.000000000756 -0.000000002461 0.000000000000
-0.001170468565 -0.001663524117 0.000000000000
0.000786970917 -0.000080808091 0.000000000000
0.004348901603 -0.006626314110 0.000000000000
-0.005330223794 -0.006512681017 0.000000000000
-0.003187401979 -0.026705788325 0.000000000000
-0.001492352240 -0.027842464252 0.000000000000
0.000884536200 -0.013349390516 0.000000000000
-0.000140757980 0.000151808668 0.000000000000
0.000143428261 0.000143055549 0.000000000000
0.003150101569 -0.005698861192 0.000000000000
-0.004221856908 -0.005562541980 0.000000000000
0.000000032105 0.000001161323 0.000000000000
-0.002885185582 -0.001391324481 0.000000000000
-0.000921644136 -0.000021639882 0.000000000000
0.000000432275 0.000037620314 0.000000000000
-0.004673031808 -0.010660886743 0.000000000000
0.002158097445 -0.001017459408 0.000000000000
0.000012186086 0.000038523206 0.000000000000
0.002219246867 -0.010526509923 0.000000000000
-0.000857801193 -0.021476060700 0.000000000000
0.000000361923 0.000001187830 0.000000000000
-0.002615992463 -0.021594055764 0.000000000000
-0.005074724558 -0.007562653195 0.000000000000
0.000000002071 -0.000000044445 0.000000000000
0.000000028187 -0.000000046383 0.000000000000
0.000000031029 -0.000000081713 0.000000000000
0.000000008618 -0.000000028207 0.000000000000
0.000000000649 -0.000000004560 0.000000000000
-0.000000000170 -0.000000000732 0.000000000000
-0.000000000077 -0.000000000118 0.000000000000
-0.000182839199 -0.000017057491 0.000000000000
0.001895346922 -0.007220087044 0.000000000000
0.000643523373 0.000013526855 0.000000000000
-0.000035385494 0.000001350871 0.000000000000
-0.000000938237 0.000000012384 0.000000000000
-0.005678016926 -0.017324088216 0.000000000000
0.003168377086 -0.017449111783 0.000000000000
-0.000006041172 0.000000127796 0.000000000000
-0.000000000008 -0.000000000008 0.000000000000
-0.005272210641 -0.017398703765 0.000000000000
-0.002155993355 -0.008365155815 0.000000000000
-0.000000000268 -0.000000000167 0.000000000000
-0.000000001311 -0.000000000947 0.000000000000
-0.000000005990 -0.000000005382 0.000000000000
-0.000000023447 -0.000000030744 0.000000000000
-0.000000038907 -0.000000078294 0.000000000000
-0.000000032081 -0.000000041701 0.000000000000
-0.000000008144 -0.000000039558 0.000000000000
0.001232452200 -0.017192072994 0.000000000000
0.000000000254 0.000000000131 0.000000000000
0.000000001252 0.000000000726 0.000000000000
0.000000006330 0.000000003418 0.000000000000
0.000000034378 0.000000049330 0.000000000000
-0.000000020670 0.000000008067 0.000000000000
0.000000034658 0.000000020305 0.000000000000
-0.000000006825 0.000000013802 0.000000000000
-0.002082586649 -0.004931907090 0.000000000000
0.000000002704 0.000000001872 0.000000000000
-0.000000002524 0.000000002225 0.000000000000
-0.003665006529 -0.021614923159 0.000000000000
-0.002161304149 -0.029028276821 0.000000000000
-0.001340866717 -0.021878728676 0.000000000000
-0.002851131446 -0.016525168210 0.000000000000
-0.003698962403 -0.022031705787 0.000000000000
-0.002431817253 -0.029052471368 0.000000000000
-0.000220760237 -0.021924913316 0.000000000000
0.001148796740 -0.005195756700 0.000000000000
-0.000000010539 -0.000000200695 0.000000000000
-0.000000014674 -0.000000991011 0.000000000000
-0.000000076995 -0.000005672310 0.000000000000
-0.000000398964 -0.000032825234 0.000000000000
-0.000010615425 -0.000033612405 0.000000000000
-0.000001826516 -0.000005810082 0.000000000000
-0.000000318925 -0.000001015369 0.000000000000
-0.000000057938 -0.000000204076 0.000000000000
0.000000012939 0.000000016878 0.000000000000
-0.000000033348 0.000000022834 0.000000000000
0.000000021385 0.000000011762 0.000000000000
-0.000000021932 0.000000049684 0.000000000000
-0.000000000978 0.000000003446 0.000000000000
0.000000000212 0.000000000687 0.000000000000
0.000000000092 0.000000000112 0.000000000000
0.000000000022 0.000000000018 0.000000000000
-0.000000000003 0.000000000007 0.000000000000
0.000000000002 0.000000000002 0.000000000000
0.000000000049 0.000000000024 0.000000000000
0.000143055242 0.000090512267 0.000000000000
0.000072001976 0.000089091002 0.000000000000
-0.000568143897 0.000056972977 0.000000000000
-0.000832966610 -0.000042235998 0.000000000000
0.001349342126 -0.000847333535 0.000000000000
0.001189472051 -0.000446643450 0.000000000000
-0.001573839637 -0.000559536883 0.000000000000
-0.001833087388 -0.001050680213 0.000000000000
-0.000000227298 0.000000019594 0.000000000000
-0.000001213596 0.000000200161 0.000000000000
-0.000001200131 -0.000000173164 0.000000000000
-0.000000224584 -0.000000013930 0.000000000000
0.000625674322 -0.010990308332 0.000000000000
0.000032901827 -0.017085870518 0.000000000000
0.001869730838 -0.011518218968 0.000000000000
-0.004657098946 -0.011249482952 0.000000000000
-0.005532924771 -0.011881656352 0.000000000000
-0.004688180986 -0.017249486609 0.000000000000
-0.000000367658 0.000000005180 0.000000000000
-0.000924102862 -0.000379405267 0.000000000000
-0.000455939163 -0.000095847483 0.000000000000
-0.000302448794 -0.000035442958 0.000000000000
-0.000022362096 -0.000359175935 0.000000000000
-0.000144152144 0.000031567355 0.000000000000
-0.001972887782 -0.011838762929 0.000000000000
-0.003039691638 -0.011848238846 0.000000000000
-0.000100473555 0.000042087359 0.000000000000
-0.000028795732 0.000107033755 0.000000000000
0.001718298393 -0.003225800737 0.000000000000
0.001594245621 -0.002865889670 0.000000000000
0.002339076286 -0.009304082980 0.000000000000
0.000028587482 0.000107875339 0.000000000000
0.000109237795 0.000036271000 0.000000000000
-0.002875569762 -0.003315885950 0.000000000000
-0.005271601548 -0.009714659658 0.000000000000
-0.003208146328 -0.003058452304 0.000000000000
-0.000074446983 0.000098060227 0.000000000000
0.000001127181 0.000127081992 0.000000000000
0.000283780468 0.000041763057 0.000000000000
0.000322807373 0.000102011566 0.000000000000
-0.002349314093 -0.002350222548 0.000000000000
-0.002108166036 -0.002779568347 0.000000000000
-0.002901516006 -0.002419025558 0.000000000000
-0.003744830397 -0.008615117918 0.000000000000
-0.002574704400 -0.006332676868 0.000000000000
-0.002489467002 -0.010439661667 0.000000000000
-0.006004745925 -0.011042100111 0.000000000000
0.001513706613 -0.002865563657 0.000000000000
0.001809105802 -0.002396976910 0.000000000000
0.002268390323 -0.008857795173 0.000000000000
0.000838015867 -0.002058371910 0.000000000000
-0.000148914518 0.000103509514 0.000000000000
-0.000459449765 0.000133573819 0.000000000000
0.000160280393 0.000028615956 0.000000000000
0.000472869671 0.000089510600 0.000000000000
0.001233863735 -0.000288694206 0.000000000000
0.000455271915 -0.000018148760 0.000000000000
0.001616813452 -0.006191669920 0.000000000000
0.004395156876 -0.011134299234 0.000000000000
0.000927130645 -0.010273552946 0.000000000000
-0.001616092137 -0.000367847088 0.000000000000
-0.003365996717 -0.002997063403 0.000000000000
-0.000216603944 -0.021695498655 0.000000000000
0.002551863247 -0.002651105821 0.000000000000
-0.000189874082 0.000049360902 0.000000000000
-0.004233220148 -0.021815632209 0.000000000000
-0.003906381742 -0.008213090395 0.000000000000
0.000169368644 -0.007974865608 0.000000000000
-0.000097733032 -0.000004537371 0.000000000000
-0.000072019364 -0.000003847828 0.000000000000
-0.000079787545 0.000000897428 0.000000000000
-0.000046920213 -0.000005845593 0.000000000000
-0.000041274169 0.000007512880 0.000000000000
-0.000836955867 -0.010404395008 0.000000000000
0.000408841341 -0.020604317353 0.000000000000
-0.000015914088 0.000000375015 0.000000000000
-0.000015586339 0.000000571032 0.000000000000
-0.000014296685 0.000000369112 0.000000000000
-0.000007707937 -0.000001020236 0.000000000000
-0.000007731338 0.000001303461 0.000000000000
-0.000875617838 -0.010415858894 0.000000000000
-0.003495051355 -0.020506449040 0.000000000000
-0.000002526085 0.000000020816 0.000000000000
-0.000002554268 0.000000060386 0.000000000000
0.001282963250 -0.000287393407 0.000000000000
0.000801029132 -0.000041853849 0.000000000000
0.001870606622 -0.013681107614 0.000000000000
-0.005107194862 -0.013842928160 0.000000000000
-0.003036419434 -0.024177305094 0.000000000000
-0.001528801781 -0.025116417286 0.000000000000
-0.002352359898 -0.025056207030 0.000000000000
-0.001030101555 -0.024076039832 0.000000000000
-0.003167313186 -0.004177200368 0.000000000000
0.000075100350 -0.004014280957 0.000000000000
-0.000002369180 0.000000036121 0.000000000000
-0.001601090394 -0.004205730305 0.000000000000
-0.004941287787 -0.016301752932 0.000000000000
-0.004359995171 -0.021955010446 0.000000000000
0.000992697853 -0.022080807626 0.000000000000
0.002314648683 -0.016439337559 0.000000000000
-0.005737002025 -0.011932716923 0.000000000000
0.003780530188 -0.012064324908 0.000000000000
0.000452428045 -0.019792598284 0.000000000000
-0.004211074779 -0.019950642846 0.000000000000
0.001000608743 -0.000347092744 0.000000000000
0.001947541012 -0.001000340103 0.000000000000
-0.002727236312 -0.001839122719 0.000000000000
-0.004381541034 -0.003692138239 0.000000000000
-0.002251116428 -0.001047475933 0.000000000000
0.002399753835 -0.001876581459 0.000000000000
0.003559525453 -0.003417780939 0.000000000000
-0.001320834997 -0.000410467343 0.000000000000
-0.005018822371 -0.006527817206 0.000000000000
0.003879479401 -0.006651828450 0.000000000000
0.001404265374 -0.015651997219 0.000000000000
-0.001610278652 -0.006455721469 0.000000000000
-0.004443359565 -0.015738294673 0.000000000000
0.000439998750 -0.006453226953 0.000000000000

CELL_DATA 91

SCALARS Density float
LOOKUP_TABLE default
0.000000000000
0.000000000000
0.000000000000
0.000000000000
0.000000000000
0.000000000000
0.000000000000
0.000000000000
0.000000000000
0.000000000000
0.000000000000
0.000000000000
0.000000000000
0.000000000000
0.000000000000
0.000000000000
0.000000000000
0.000000000000
0.000000000000
0.000000000000
0.000000000000
0.000000000000
0.000000000000
0.000000000000
0.000000000000
0.000000000000
0.000000000000
0.000000000000
0.000000000000
0.000000000000
0.000000000000
0.000000000000
0.000000000000
0.000000000000
0.000000000000
0.000000000000
0.000000000000
0.000000000000
0.000000000000
0.000000000000
0.000000000000
0.000000000000
0.000000000000
0.000000000000
0.000000000000
0.000000000000
0.000000000000
0.000000000000
0.000000000000
0.000000000000
0.000000000000
0.000000000000
0.000000000000
0.000000000000
0.000000000000
0.000000000000
0.000000000000
0.000000000000
0.000000000000
0.000000000000
0.000000000000
0.000000000000
0.000000000000
0.000000000000
0.000000000000
0.000000000000
0.000000000000
0.000000000000
0.000000000000
0.000000000000
0.000000000000
0.000000000000
0.000000000000
0.000000000000
0.000000000000
0.000000000000
0.000000000000
0.000000000000
0.000000000000
0.000000000000
0.000000000000
0.000000000000
0.000000000000
0.000000000000
0.000000000000
0.000000000000
0.000000000000
0.000000000000
0.000000000000
0.000000000000
0.000000000000

SCALARS Youngs_modulus float
LOOKUP_TABLE default
3.844641275907
2.993941814708
4.909685156778
3.052508361261
2.167910323466
4.844053188542
3.921754545614
2.487368310011
1.878009462511
1.432520480621
2.188576169523
2.391438916615
2.790582193369
2.857458209519
1.264181080323
1.022733951507
1.623011598907
2.784913380725
2.814368257693
1.291579548522
1.085879170109
2.275716698320
2.108509378496
3.715712805646
1.031248834344
1.396240404492
2.875356239927
2.240073127756
4.049249329828
1.360851363425
1.355384304727
2.832057970832
3.260449030637
1.554378792523
2.157097149975
1.067452590247
3.715712810686
3.746540490636
2.991578140162
1.325819497893
2.299306492629
1.436032984326
4.049249333148
3.735596445098
2.110941190877
1.022552675425
3.290646621634
1.637370143319
3.162379468944
2.092593132783
1.315918026133
3.779816724997
3.049730474703
1.399235786432
3.946507086613
3.136751018711
2.023922128156
3.770259790232
2.177681573086
1.054806557392
3.824459030151
3.937610987586
1.360000000000
3.203549381841
2.114599771708
1.362869821716
23.991781607254
3.888492112779
2.650584020312
3.958489335060
3.116941783957
2.071112051031
3.776299460831
2.818675476702
1.341933226019
1.444444444444
1.465009566504
2.608036781981
2.863906010328
1.340277779067
1.466944442934
2.604444451236
2.867777770451
1.340277779616
1.466944442291
2.604444449102
2.867777772753
1.340277778084
1.466944444085
2.604444445115
2.867777777055

SCALARS Poissons_ratio float
LOOKUP_TABLE default
0.000000000000
0.000000000000
0.000000000000
0.000000000000
0.000000000000
0.000000000000
0.000000000000
0.000000000000
0.000000000000
0.000000000000
0.000000000000
0.000000000000
0.000000000000
0.000000000000
0.000000000000
0.000000000000
0.000000000000
0.000000000000
0.000000000000
0.000000000000
0.000000000000
0.000000000000
0.000000000000
0.000000000000
0.000000000000
0.000000000000
0.000000000000
0.000000000000
0.000000000000
0.000000000000
0.000000000000
0.000000000000
0.000000000000
0.000000000000
0.000000000000
0.000000000000
0.000000000000
0.000000000000
0.000000000000
0.000000000000
0.000000000000
0.000000000000
0.000000000000
0.000000000000
0.000000000000
0.000000000000
0.000000000000
0.000000000000
0.000000000000
0.000000000000
0.000000000000
0.000000000000
0.000000000000
0.000000000000
0.000000000000
0.000000000000
0.000000000000
0.000000000000
0.000000000000
0.000000000000
0.000000000000
0.000000000000
0.000000000000
0.000000000000
0.000000000000
0.000000000000
0.000000000000
0.000000000000
0.000000000000
0.000000000000
0.000000000000
0.000000000000
0.000000000000
0.000000000000
0.000000000000
0.000000000000
0.000000000000
0.000000000000
0.000000000000
0.000000000000
0.000000000000
0.000000000000
0.000000000000
0.000000000000
0.000000000000
0.000000000000
0.000000000000
0.000000000000
0.000000000000
0.000000000000
0.000000000000
