# vtk DataFile Version 3.0
fsi_3d_channel_discr_1

ASCII

DATASET UNSTRUCTURED_GRID

POINTS 4305 float
 0.550000000000 -0.300000000000  0.150000000000
 0.550000000000  0.300000000000  0.150000000000
 0.500000000000  0.300000000000  0.150000000000
 0.500000000000  0.000000000000  0.250000000000
 0.550000000000 -0.150000000000  0.150000000000
 0.550000000000 -0.000000000000  0.150000000000
 0.550000000000  0.150000000000  0.150000000000
 0.537500000000  0.300000000000  0.150000000000
 0.525000000000  0.300000000000  0.150000000000
 0.512500000000  0.300000000000  0.150000000000
 0.537500000000 -0.150000000000  0.150000000000
 0.525000000000  0.000000000000  0.150000000000
 0.512500000000  0.150000000000  0.150000000000
 0.537500000000 -0.225000000000  0.175000000000
 0.525000000000 -0.150000000000  0.200000000000
 0.512500000000 -0.075000000000  0.225000000000
 0.537500000000  0.225000000000  0.175000000000
 0.525000000000  0.150000000000  0.200000000000
 0.512500000000  0.075000000000  0.225000000000
 0.500000000000  0.225000000000  0.175000000000
 0.500000000000  0.150000000000  0.200000000000
 0.500000000000  0.075000000000  0.225000000000
 0.525000000000  0.150000000000  0.150000000000
 0.537500000000  0.150000000000  0.150000000000
 0.537500000000  0.000000000000  0.150000000000
 0.512500000000  0.150000000000  0.200000000000
 0.525000000000  0.225000000000  0.175000000000
 0.512500000000  0.225000000000  0.175000000000
 0.537500000000 -0.075000000000  0.175000000000
 0.537500000000  0.075000000000  0.175000000000
 0.525000000000 -0.000000000000  0.200000000000
 0.525000000000 -0.075000000000  0.175000000000
 0.512500000000  0.000000000000  0.200000000000
 0.512500000000  0.075000000000  0.175000000000
 0.525000000000  0.075000000000  0.175000000000
 0.550000000000  0.300000000000  0.150000000000
 0.500000000000  0.500000000000  0.250000000000
 0.500000000000  0.000000000000  0.250000000000
 1.000000000000  0.000000000000  0.250000000000
 0.537500000000  0.350000000000  0.175000000000
 0.525000000000  0.400000000000  0.200000000000
 0.512500000000  0.450000000000  0.225000000000
 0.500000000000  0.375000000000  0.250000000000
 0.500000000000  0.250000000000  0.250000000000
 0.500000000000  0.125000000000  0.250000000000
 0.537500000000  0.225000000000  0.175000000000
 0.525000000000  0.150000000000  0.200000000000
 0.512500000000  0.075000000000  0.225000000000
 0.662500000000  0.225000000000  0.175000000000
 0.775000000000  0.150000000000  0.200000000000
 0.887500000000  0.075000000000  0.225000000000
 0.625000000000  0.375000000000  0.250000000000
 0.750000000000  0.250000000000  0.250000000000
 0.875000000000  0.125000000000  0.250000000000
 0.625000000000  0.000000000000  0.250000000000
 0.750000000000  0.000000000000  0.250000000000
 0.875000000000  0.000000000000  0.250000000000
 0.512500000000  0.200000000000  0.225000000000
 0.512500000000  0.325000000000  0.225000000000
 0.525000000000  0.275000000000  0.200000000000
 0.750000000000  0.125000000000  0.250000000000
 0.625000000000  0.250000000000  0.250000000000
 0.625000000000  0.125000000000  0.250000000000
 0.650000000000  0.275000000000  0.200000000000
 0.637500000000  0.325000000000  0.225000000000
 0.762500000000  0.200000000000  0.225000000000
 0.650000000000  0.150000000000  0.200000000000
 0.762500000000  0.075000000000  0.225000000000
 0.637500000000  0.075000000000  0.225000000000
 0.637500000000  0.200000000000  0.225000000000
 0.500000000000  0.500000000000  0.250000000000
 0.550000000000  0.300000000000  0.150000000000
 1.000000000000  0.500000000000  0.250000000000
 1.000000000000  0.000000000000  0.250000000000
 0.512500000000  0.450000000000  0.225000000000
 0.525000000000  0.400000000000  0.200000000000
 0.537500000000  0.350000000000  0.175000000000
 0.662500000000  0.350000000000  0.175000000000
 0.775000000000  0.400000000000  0.200000000000
 0.887500000000  0.450000000000  0.225000000000
 0.625000000000  0.500000000000  0.250000000000
 0.750000000000  0.500000000000  0.250000000000
 0.875000000000  0.500000000000  0.250000000000
 0.625000000000  0.375000000000  0.250000000000
 0.750000000000  0.250000000000  0.250000000000
 0.875000000000  0.125000000000  0.250000000000
 0.662500000000  0.225000000000  0.175000000000
 0.775000000000  0.150000000000  0.200000000000
 0.887500000000  0.075000000000  0.225000000000
 1.000000000000  0.375000000000  0.250000000000
 1.000000000000  0.250000000000  0.250000000000
 1.000000000000  0.125000000000  0.250000000000
 0.762500000000  0.450000000000  0.225000000000
 0.650000000000  0.400000000000  0.200000000000
 0.637500000000  0.450000000000  0.225000000000
 0.887500000000  0.200000000000  0.225000000000
 0.775000000000  0.275000000000  0.200000000000
 0.887500000000  0.325000000000  0.225000000000
 0.637500000000  0.325000000000  0.225000000000
 0.650000000000  0.275000000000  0.200000000000
 0.762500000000  0.200000000000  0.225000000000
 0.750000000000  0.375000000000  0.250000000000
 0.875000000000  0.250000000000  0.250000000000
 0.875000000000  0.375000000000  0.250000000000
 0.762500000000  0.325000000000  0.225000000000
 0.550000000000 -0.300000000000  0.150000000000
 0.500000000000  0.300000000000  0.150000000000
 0.500000000000 -0.300000000000  0.150000000000
 0.500000000000  0.000000000000  0.250000000000
 0.537500000000 -0.150000000000  0.150000000000
 0.525000000000  0.000000000000  0.150000000000
 0.512500000000  0.150000000000  0.150000000000
 0.500000000000  0.150000000000  0.150000000000
 0.500000000000  0.000000000000  0.150000000000
 0.500000000000 -0.150000000000  0.150000000000
 0.537500000000 -0.300000000000  0.150000000000
 0.525000000000 -0.300000000000  0.150000000000
 0.512500000000 -0.300000000000  0.150000000000
 0.537500000000 -0.225000000000  0.175000000000
 0.525000000000 -0.150000000000  0.200000000000
 0.512500000000 -0.075000000000  0.225000000000
 0.500000000000  0.225000000000  0.175000000000
 0.500000000000  0.150000000000  0.200000000000
 0.500000000000  0.075000000000  0.225000000000
 0.500000000000 -0.225000000000  0.175000000000
 0.500000000000 -0.150000000000  0.200000000000
 0.500000000000 -0.075000000000  0.225000000000
 0.512500000000 -0.150000000000  0.150000000000
 0.512500000000 -0.000000000000  0.150000000000
 0.525000000000 -0.150000000000  0.150000000000
 0.500000000000 -0.000000000000  0.200000000000
 0.500000000000  0.075000000000  0.175000000000
 0.500000000000 -0.075000000000  0.175000000000
 0.525000000000 -0.075000000000  0.175000000000
 0.512500000000  0.075000000000  0.175000000000
 0.512500000000  0.000000000000  0.200000000000
 0.525000000000 -0.225000000000  0.175000000000
 0.512500000000 -0.150000000000  0.200000000000
 0.512500000000 -0.225000000000  0.175000000000
 0.512500000000 -0.075000000000  0.175000000000
 1.000000000000 -0.500000000000  0.250000000000
 0.550000000000 -0.300000000000  0.150000000000
 0.500000000000  0.000000000000  0.250000000000
 1.000000000000  0.000000000000  0.250000000000
 0.887500000000 -0.450000000000  0.225000000000
 0.775000000000 -0.400000000000  0.200000000000
 0.662500000000 -0.350000000000  0.175000000000
 0.537500000000 -0.225000000000  0.175000000000
 0.525000000000 -0.150000000000  0.200000000000
 0.512500000000 -0.075000000000  0.225000000000
 0.875000000000 -0.375000000000  0.250000000000
 0.750000000000 -0.250000000000  0.250000000000
 0.625000000000 -0.125000000000  0.250000000000
 1.000000000000 -0.375000000000  0.250000000000
 1.000000000000 -0.250000000000  0.250000000000
 1.000000000000 -0.125000000000  0.250000000000
 0.662500000000 -0.225000000000  0.175000000000
 0.775000000000 -0.150000000000  0.200000000000
 0.887500000000 -0.075000000000  0.225000000000
 0.625000000000  0.000000000000  0.250000000000
 0.750000000000  0.000000000000  0.250000000000
 0.875000000000  0.000000000000  0.250000000000
 0.637500000000 -0.200000000000  0.225000000000
 0.650000000000 -0.275000000000  0.200000000000
 0.762500000000 -0.325000000000  0.225000000000
 0.762500000000 -0.075000000000  0.225000000000
 0.650000000000 -0.150000000000  0.200000000000
 0.637500000000 -0.075000000000  0.225000000000
 0.887500000000 -0.325000000000  0.225000000000
 0.775000000000 -0.275000000000  0.200000000000
 0.887500000000 -0.200000000000  0.225000000000
 0.875000000000 -0.250000000000  0.250000000000
 0.875000000000 -0.125000000000  0.250000000000
 0.750000000000 -0.125000000000  0.250000000000
 0.762500000000 -0.200000000000  0.225000000000
 1.000000000000 -0.500000000000  0.250000000000
 0.500000000000 -0.500000000000  0.250000000000
 0.500000000000  0.000000000000  0.250000000000
 0.550000000000 -0.300000000000  0.150000000000
 0.875000000000 -0.500000000000  0.250000000000
 0.750000000000 -0.500000000000  0.250000000000
 0.625000000000 -0.500000000000  0.250000000000
 0.500000000000 -0.375000000000  0.250000000000
 0.500000000000 -0.250000000000  0.250000000000
 0.500000000000 -0.125000000000  0.250000000000
 0.875000000000 -0.375000000000  0.250000000000
 0.750000000000 -0.250000000000  0.250000000000
 0.625000000000 -0.125000000000  0.250000000000
 0.887500000000 -0.450000000000  0.225000000000
 0.775000000000 -0.400000000000  0.200000000000
 0.662500000000 -0.350000000000  0.175000000000
 0.512500000000 -0.450000000000  0.225000000000
 0.525000000000 -0.400000000000  0.200000000000
 0.537500000000 -0.350000000000  0.175000000000
 0.512500000000 -0.075000000000  0.225000000000
 0.525000000000 -0.150000000000  0.200000000000
 0.537500000000 -0.225000000000  0.175000000000
 0.625000000000 -0.250000000000  0.250000000000
 0.625000000000 -0.375000000000  0.250000000000
 0.750000000000 -0.375000000000  0.250000000000
 0.525000000000 -0.275000000000  0.200000000000
 0.512500000000 -0.325000000000  0.225000000000
 0.512500000000 -0.200000000000  0.225000000000
 0.762500000000 -0.450000000000  0.225000000000
 0.637500000000 -0.450000000000  0.225000000000
 0.650000000000 -0.400000000000  0.200000000000
[...]
POINT_DATA 4305

VECTORS Velocity float
-2.452263920860e-03  2.463345959787e-03 -2.757163437225e-03
-1.474088400795e-03 -3.167810396749e-03 -3.109127803855e-03
 3.786598790452e-02  1.143075059758e-02  1.574969418112e-02
 9.179293789655e-03  2.097089964615e-04  2.602438362672e-02
-7.568108299247e-03  1.158068193565e-05 -1.614883674495e-03
-5.635563894750e-03 -1.937556800926e-05 -1.573993664721e-03
-7.393153042044e-03  1.952100131270e-04 -2.186252174470e-03
-5.051729901274e-03 -3.345112843533e-03 -6.576135931331e-03
-4.077959500609e-03 -2.965780804874e-03 -8.307469582407e-03
 7.193708012727e-03  6.723142328174e-04 -1.868883133264e-03
-1.007750303354e-02  1.856606210424e-04 -6.420907759964e-03
-7.529942842907e-03 -1.870551235185e-04 -9.287376771866e-03
-4.984970826223e-04 -1.205216191803e-03 -3.064035725821e-03
 6.503624699622e-02 -6.792650316298e-03  5.972633238372e-03
 7.840637509847e-02 -1.020766270449e-02  2.245424622620e-02
 4.512498070771e-02 -3.610324549278e-03  1.789611936872e-03
 6.724149827258e-02  7.284813320316e-03  6.420950530821e-03
 7.795703636226e-02  9.864765798084e-03  2.102429117829e-02
 4.251658190215e-02  2.832077527607e-03  1.294547311762e-03
 7.222856796871e-02  2.214764710325e-02  3.004798999811e-02
 5.749788614924e-02  1.221313390702e-02  8.255975508633e-03
 4.375116120191e-02  2.291754085846e-03  2.800652501573e-03
-1.010530023420e-02 -1.489612455786e-03 -1.031556511698e-02
-1.071926866591e-02 -4.169353393010e-04 -7.705553788452e-03
-8.480235759959e-03  2.567092586681e-04 -6.813271775708e-03
 7.094524015223e-02  1.142589240001e-02  1.954318493424e-02
 6.986615152553e-02  1.075547942311e-02  1.672913549387e-02
 7.228385128205e-02  1.552555859778e-02  2.649964865464e-02
 6.842367021567e-02 -1.198042179509e-03  6.402385410731e-03
 6.839542719391e-02  1.562255044272e-03  6.721593999543e-03
 8.114247700216e-02  3.476611349066e-04  2.103148782777e-02
 7.081574175646e-02 -1.775103088946e-03  1.667567977876e-02
 7.407086049117e-02  1.305537845658e-04  1.962419497398e-02
 7.308537062173e-02  3.143989728415e-03  2.765630516664e-02
 7.109004789606e-02  2.342038811091e-03  1.720910667565e-02
 2.539012751957e-02 -1.028855712217e-02 -2.038980960336e-02
-1.970433892643e-03 -2.537707196757e-04  1.282915546377e-03
-2.821315282635e-04  6.131353386563e-04 -1.728984098843e-04
-1.839767924405e-04 -1.723914416033e-03 -5.968365874468e-03
 1.109934608096e-01  2.475478304358e-02  5.942941484691e-03
 9.112342715623e-02  2.297711994814e-02  4.462885152157e-03
 3.712101094050e-02  5.576282292043e-03  5.349655960934e-07
-5.778715938229e-04 -4.888073164521e-04 -6.235545528080e-05
-1.639953352860e-03  1.317672543437e-04 -2.188211725610e-04
-1.345347979330e-03 -3.621442887191e-04 -8.817193902156e-04
 6.390436993782e-02  7.841900358107e-03  1.202727482631e-02
 7.557908617179e-02  8.459302658172e-03  1.957131519691e-02
 4.478192568854e-02  3.151885721993e-03  6.802456403871e-03
 5.888788286586e-02 -1.177405054344e-02 -2.920625530064e-02
 3.689119471314e-02 -7.393855425463e-03 -5.938896399483e-03
 2.081692723957e-02 -5.032278427243e-04  4.572240780303e-03
-5.318021248562e-05  3.115667669346e-04 -3.808268706950e-04
-9.301794241716e-04 -6.734936326963e-04  2.086128657208e-04
-1.345302559878e-04  1.141528018565e-04  4.936183684395e-04
 4.935529676809e-04  2.542257014005e-04  7.670392642739e-04
-8.900334472299e-04  4.027413521700e-05 -6.655451848994e-05
 1.092384709567e-03 -3.219082602629e-04  9.453326427170e-04
 4.493077405760e-02  1.291699367863e-02  8.297758963918e-03
 4.644787192281e-02  1.879122174523e-02  3.195107114607e-03
 8.032747428027e-02  2.481959901735e-02  1.585432937843e-02
-6.947259204979e-04 -1.741749614678e-04 -4.099257694830e-05
-4.039960403357e-04 -7.926403392717e-05  2.710049281000e-04
 4.136161332993e-04 -2.034049363958e-04  6.372753098376e-05
 7.441072832576e-02 -5.291463439062e-03 -1.036011857904e-02
 5.066051269850e-02 -1.782435318364e-03 -1.521902767167e-03
 2.304199998953e-02 -7.499244942678e-03 -3.686980504279e-03
 7.057869643737e-02 -1.710362912194e-03 -1.456212038048e-02
 2.216106407303e-02 -1.249270139384e-03 -3.493808964181e-03
 5.462997060986e-02  4.319283927745e-04 -2.948847463340e-03
 5.118859141661e-02  9.547872998189e-04 -2.498810904693e-03
-2.783513067573e-03 -6.535378209542e-04 -5.736850389293e-05
 4.734456484555e-02 -6.703246520993e-03 -2.024615598908e-02
 4.663418228228e-04 -1.676307189042e-03  1.082155178150e-03
-2.066960794581e-03 -1.493994110545e-03 -1.004062410438e-04
 3.526591062798e-02  8.839675330138e-03  2.746555497686e-03
 9.035594022117e-02  2.487034675086e-02  7.933556492729e-03
 1.139476187202e-01  2.706306656785e-02  5.033052798394e-03
 1.002567979055e-01 -1.972393585648e-02 -1.569433315258e-02
 5.576972338897e-02 -1.042422842073e-02 -2.735538367311e-03
 1.056083182737e-02  2.589109040722e-04  2.282350366418e-04
-1.240166091684e-03  4.174731642404e-04  3.815063361332e-04
-9.578936805817e-04 -1.572871101042e-04  4.202150421637e-04
 2.269521857134e-04 -6.791451177119e-04  2.601444536834e-04
 1.821505567555e-04  2.660542201675e-04 -1.117435123864e-04
-1.268528250816e-03 -6.196974684464e-04  1.380397284833e-04
 1.093904273399e-03  2.485776434035e-04  2.959981882970e-05
 5.502879332823e-02 -1.192023192590e-02 -2.907070274972e-02
 3.626630959407e-02 -7.166818230222e-03 -8.618642925578e-03
 1.812431101380e-02 -1.496604191968e-03  1.460478790371e-03
-8.968564454945e-04 -4.858912897429e-04  2.961265275822e-04
-3.131510893126e-04 -7.872973041188e-04 -3.300747610841e-05
 8.709993338552e-05 -9.101600410600e-04 -4.505327050299e-04
 2.346779796805e-02 -2.397714362501e-03 -8.394944690311e-04
 8.464480221333e-02 -4.545302420514e-03 -4.567757728744e-03
 3.841403038745e-02 -3.478212071312e-04 -1.303082088363e-03
 1.516291016548e-02 -4.928154651337e-03  4.090959686510e-04
 4.581070852078e-02 -1.661454500613e-02 -6.549890201007e-03
 1.941497087928e-02 -5.668923359366e-03  2.061751901501e-04
 5.159049632262e-02 -2.001537241435e-03 -2.309751317754e-03
 7.392226779128e-02 -5.193522639744e-03 -1.058092740464e-02
 2.361437868666e-02 -6.947280655203e-03 -2.967835788828e-03
-4.040084580684e-04 -3.674355289151e-04  1.213127806114e-04
-5.885493097714e-04 -7.205392387506e-06  2.479068001292e-04
-3.437724332895e-04 -9.397199610935e-05  1.581947812963e-04
 3.191055210040e-02 -9.328129002244e-03 -1.945139074086e-03
-4.734992561084e-04  3.031202036703e-03 -1.539213928772e-03
 4.672657703124e-02  1.402047353619e-02  2.024496978463e-02
 4.756198627129e-02 -1.391357982882e-02  1.924384735309e-02
-1.492087909310e-02 -1.036127667467e-03  1.169782665654e-03
-1.212660499396e-02  7.504034493502e-05 -8.361022903550e-03
-8.438561003203e-03 -2.679359865693e-04 -1.179486151002e-02
-7.761431090084e-04 -1.362594206855e-03 -4.203475400954e-03
 3.173703668255e-02  1.879101189163e-03  2.467862168957e-02
 3.468512395301e-02 -1.603596338077e-05  2.432111607578e-02
 3.108176123284e-02 -1.625686734810e-03  2.467444818830e-02
-6.455451846907e-03  3.522329173695e-03 -8.351859319968e-03
-4.497427913182e-03  3.580813231854e-03 -1.117215068649e-02
 8.458441245451e-03 -4.470190413101e-04 -3.254163857589e-03
 6.720831650180e-02 -6.469914705000e-03  5.372116748874e-03
 8.093966026501e-02 -9.947818223149e-03  2.469642647749e-02
 4.674635892914e-02 -3.485873446644e-03  4.838073288513e-03
 6.973137950274e-02  2.086228423095e-02  2.744057657798e-02
 6.132000026259e-02  1.243021962887e-02  1.199346060236e-02
 4.679674741739e-02  3.034311170523e-03  9.447815141389e-03
 7.073197761091e-02 -2.150189945840e-02  2.711344848867e-02
 6.337357298126e-02 -1.170052375923e-02  1.376478355135e-02
 5.022963088213e-02 -2.988547989846e-03  8.721251322193e-03
-2.289638850035e-04  1.171121434804e-03 -3.097281086700e-03
 2.764823130314e-03 -3.429596202765e-04 -3.128727144016e-03
-1.063734014698e-02  7.682083029441e-04 -1.226615008877e-02
 6.504056560543e-02  2.819194015556e-04  1.293790450630e-02
 6.917936835750e-02  4.522994944506e-03  2.792367089727e-02
 6.895152579768e-02 -3.955873322835e-03  2.816767422460e-02
 7.077076246998e-02 -1.835390553241e-03  1.675404237671e-02
 7.310948702880e-02  3.420164759864e-03  2.738182505145e-02
 7.364203968173e-02  1.950396140475e-04  1.847771450054e-02
 6.938246636811e-02 -1.037666333523e-02  1.718809982627e-02
 7.186075886618e-02 -1.132905275266e-02  1.945634658330e-02
 7.236338484120e-02 -1.533703423165e-02  2.684330336681e-02
 7.300879220725e-02 -2.948164116916e-03  2.686834078357e-02
-1.223393853523e-03  1.914273923705e-03  1.005320525509e-03
 4.171511932668e-02  6.139131639009e-03 -1.561553143638e-02
-5.498187298110e-03  5.290697429880e-04  5.177843285046e-05
-1.921774294037e-03  4.844754281205e-04 -1.103552164442e-03
 1.163394815089e-02 -2.031875671726e-03 -2.361544523414e-04
 5.664400668001e-02  1.197727819045e-02 -3.549954294853e-04
 1.032176726209e-01  1.858952935237e-02 -1.731331174704e-02
 6.654493732423e-02 -1.197885504527e-02  1.187589722487e-02
 8.054673327084e-02 -1.075561340641e-02  2.608392942933e-02
 5.497657362268e-02 -2.634916499193e-03  1.756499116192e-02
 4.023359706750e-05 -3.845557020430e-04 -3.464613179107e-04
-9.698641823705e-04  2.353394925343e-04  2.977963546161e-04
 1.436405105795e-03 -1.606404142987e-05  9.413066951050e-05
-1.805794969482e-03  9.077363279142e-04 -3.872724984338e-04
-2.202250600719e-03  7.239141791421e-04 -6.698833683852e-04
-1.480742936988e-03  6.730309989458e-04 -8.577548943029e-04
 5.652980470995e-02  1.102534688724e-02 -2.724182330868e-02
 3.589770696160e-02  6.254901775650e-03 -7.424728243879e-03
 1.784402257838e-02  1.300022498687e-03 -1.185201134873e-04
 1.159988716573e-03  1.866103092363e-04  1.241272597011e-03
-7.547827289456e-04  1.366266825165e-04 -4.955048808822e-05
 2.981415062361e-04  1.699342532740e-04 -1.673567228274e-05
 4.937998605497e-02  5.228010301848e-04 -3.691037250007e-03
 7.526119651170e-02  7.037049378808e-03 -1.206822133338e-02
 2.986741547832e-02  9.562924570556e-03 -1.835639741550e-03
 2.502087773405e-02  1.545524322423e-03 -3.163121718914e-03
 6.814604395536e-02  1.506178172228e-03 -1.350684789538e-02
 5.315167730823e-02  2.655851594020e-04 -3.380853019379e-03
 1.920115384450e-02  6.048643389077e-03 -4.452250689366e-04
 4.421492806213e-02  1.723173714596e-02 -5.346817891799e-03
 1.696960576362e-02  4.809214723805e-03 -3.194284210851e-06
-1.220895442684e-04 -3.287123800225e-05  7.743635783544e-05
 4.480891887330e-04  1.784736178550e-04 -3.337089870335e-05
-4.350305110355e-04  2.280628675304e-04 -2.913943258021e-05
 2.490082051714e-02  6.239404898670e-03 -2.875087503948e-03
-1.190747694997e-04  3.605379347226e-03 -3.703209074197e-03
-9.825259551961e-04 -7.707767687883e-04  3.226301255699e-04
-3.886244960251e-03  9.662863702746e-05 -2.493495498812e-04
 3.379641227415e-02  1.094123316940e-02 -2.187959961527e-02
 3.978682680139e-04  1.968814228211e-04 -1.295846931337e-04
-9.175734083627e-04 -1.391580084931e-04 -8.661227951607e-05
-1.831092266134e-03 -4.372200590419e-04 -2.482355918025e-04
-7.021877863502e-04  5.147424421863e-04 -5.626286060167e-05
-1.520670962535e-03  2.641323042974e-04 -2.572570614938e-05
 3.735135938868e-05  8.296447714339e-04 -5.774537949271e-04
 3.489884368009e-04 -7.975375076302e-04  7.282795101680e-04
-1.034443403246e-04  3.759917821910e-04 -4.339231034219e-04
 1.215175809459e-03 -1.092920245290e-04  2.907687811623e-04
 1.346467183520e-02 -3.568343902562e-03  2.204531680132e-03
 5.546652864789e-02  1.171526065730e-02  9.847542642966e-04
 1.039313111611e-01  1.865096448837e-02 -1.721494920665e-02
 3.314312964174e-02 -3.180936806265e-03  1.271078199226e-03
 8.616132674495e-02 -2.153612236175e-02  1.965117370521e-03
 1.121488629710e-01 -2.706183070481e-02  2.802334602198e-03
 5.512443156533e-02 -6.089550975836e-04  1.085447678230e-02
 7.804135263195e-02 -8.572780091313e-03  2.262737698176e-02
 5.938437555028e-02 -9.098569787878e-03  1.161497251672e-02
 2.905085372306e-05  8.771998875100e-06  1.513870689895e-04
-2.427383340016e-04  2.868556276721e-04  1.145914456979e-04
-9.259872231234e-04  2.813832872952e-04  1.327993582597e-05
 8.176335069701e-02 -2.688558958064e-02  1.443180264408e-02
 4.965168228208e-02 -1.903092639235e-02  3.060319346502e-03
 4.553585150021e-02 -1.467774860496e-02  9.213085267401e-03
 2.136395756349e-02  3.532453840242e-03  7.021701333956e-05
 3.800111408095e-02  1.489953154245e-03 -2.465898848019e-04
 8.626228571814e-02  4.233824074651e-03 -4.515219652286e-03
 2.871612425124e-02  9.939051300906e-03 -2.951291096891e-03
 7.664376172120e-02  6.692354783991e-03 -1.253731220737e-02
 5.011701851952e-02  7.860508349654e-06 -3.205960563722e-03
 5.421167049104e-02  2.998874898645e-04 -2.255586133245e-03
 2.272784886298e-03  1.804205456561e-04  1.455250558610e-04
 2.604723322960e-03 -8.096067974320e-04 -8.216058998013e-04
 6.245027974595e-02  2.597140633831e-02  1.497796705598e-02
-5.109007821429e-03 -1.195045518378e-03 -7.359647207024e-03
 9.505245842325e-04  9.761290786475e-05  3.768887185303e-04
-1.051452068246e-04  9.530856685777e-05  3.449655718147e-04
-3.383194783595e-04  1.832523133827e-04  3.631598116708e-06
 2.906002480651e-02  1.060502718040e-02  3.809679610099e-03
 3.295777853335e-02  2.858117985194e-02  1.323054236623e-02
 2.590888522359e-02  4.271251107136e-02  2.504180506351e-02
 4.756061672629e-02  2.996082381655e-02  4.182112848586e-04
 6.456621197482e-02  5.632057594154e-02  7.341387835372e-03
 6.318456171642e-02  6.893916132475e-02  1.721968022556e-02
 6.000642235935e-02  1.770423258708e-02  6.648217077226e-04
 8.736872833007e-02  1.172907692808e-02  1.671328186795e-03
 7.142644171074e-02  1.506102281875e-03 -2.614786143975e-04
 6.002999028170e-02 -8.998033165501e-04  9.186267935264e-04
 8.914841810468e-02 -9.726123114968e-04  2.042502849452e-03
 6.784699930524e-02 -7.916049227762e-04 -1.181389404030e-03
 5.570261967250e-02  3.503188916594e-02  1.317884587175e-02
 2.892572040176e-02  8.428237174133e-03 -2.084099310308e-03
 1.557069564145e-02  8.645819604333e-05  8.791711499637e-04
 4.391190628355e-02  4.452898523989e-02  1.177312145454e-02
 3.399025604780e-02  1.891153115156e-02  2.871840509423e-03
 3.992663524548e-02  2.624516039360e-02  1.722418916984e-03
 7.090635359635e-02  7.739720535653e-03  2.615817783208e-03
 6.861359502614e-02  1.305506370199e-02  7.531832720412e-03
 6.272391977330e-02  2.892449186925e-02  1.468133146729e-02
 5.997245650747e-02  1.408287552725e-02  1.278941415426e-03
 5.905127227693e-02  7.983797176007e-03  1.345097245009e-03
 8.953503280675e-02  6.360330473398e-03  2.351952707674e-03
 7.358059906056e-02  2.702162322671e-02  5.554666300501e-03
 6.994013046354e-02  1.366709766705e-02  2.604971845347e-03
 6.785717659643e-02  3.581281926786e-02  1.204616984562e-02
 7.144632487829e-02  2.184823257302e-02  6.514664449130e-03
-4.612785992939e-04  7.475249677687e-05  4.533170858145e-04
-7.665792866653e-04 -2.558142514639e-05 -2.378832633396e-04
-9.355425032843e-05  6.288837926289e-05  2.256013159460e-04
-2.051430792443e-04 -1.497335692090e-04  1.252715801540e-04
-6.481194818559e-04  5.501783761228e-06 -5.690033020341e-05
-4.906841191344e-04  2.521709149696e-05  1.584337965225e-04
-6.715370801656e-04  2.906198915310e-05 -2.155228031108e-05
 1.011819097770e-03 -2.039719703715e-06  4.550664639263e-04
 7.373950940148e-04  4.364500611929e-05  4.845665507252e-04
 6.471311621394e-04  6.774500481067e-05  3.408569962467e-04
 1.524394721781e-04  9.456170478118e-06 -1.211969228224e-04
-1.060813029068e-04  4.353389675077e-06  5.945013781390e-05
-6.998511230692e-05 -8.812457183449e-06 -8.671601550892e-05
 2.897771359322e-02  1.938920493077e-05 -9.009241063140e-05
 5.917142359822e-02  1.129454563676e-04 -2.990546333944e-04
 5.592388579807e-02  1.070043103746e-04 -1.333852499982e-04
 2.918962798156e-02 -1.519672612938e-04  1.007285287699e-03
 5.944703682524e-02 -8.500095359775e-05  7.167243993766e-04
 5.630325292226e-02 -3.526127102004e-05  9.781868524973e-05
 6.768847965157e-02  2.592233219110e-04  1.078375953638e-03
 8.797468232436e-02 -2.233522797903e-05  6.231423562022e-04
 6.505668274021e-02 -1.527383057115e-04 -3.474652589012e-05
-3.324970118107e-04 -1.703568063251e-05 -1.783569728717e-04
 2.548395967871e-05  1.013179491437e-05 -1.761068318663e-04
 2.655878543149e-04  1.135652362872e-05  1.068150535512e-04
 7.921851461828e-02 -1.069348644911e-04  8.844072368550e-04
 5.406521227124e-02 -2.234161941957e-04  1.605539557137e-03
 6.449117547778e-02 -3.295221114138e-05  1.490629664555e-03
 2.883173152752e-02 -1.732497887869e-05 -1.747610254221e-05
 2.877053088036e-02 -1.915310699910e-05  2.402681228027e-05
 5.952579849694e-02  4.584535275029e-05  9.258369677784e-05
 5.278980223784e-02  7.764989391902e-06  2.482442698321e-05
 7.925718571772e-02  2.794876209644e-05  1.593442152686e-04
 6.321240311722e-02 -1.448586687636e-05  1.302587359732e-04
 5.291747934924e-02 -8.044466244779e-05  1.257439884554e-04
-2.775136750696e-04  1.133902243740e-03  8.283426022293e-05
 7.731335466988e-02  3.437000853255e-02  2.109889194887e-02
-1.465337993314e-03 -2.248557381084e-03  8.526989065438e-04
-1.773985791846e-03  8.198211032021e-04  1.454013847278e-04
 4.306771193543e-02  3.830452366990e-04  4.736906965932e-03
 6.435625973528e-02  9.561754907170e-03  2.109614519930e-02
 6.810570107638e-02  2.181638072782e-02  3.122330010651e-02
 6.711933322759e-02  3.124793697227e-02  3.411955528536e-03
 2.374332836344e-02  2.798807042587e-03  3.445094586616e-04
 3.413185434978e-03 -4.779589069165e-04 -4.530962155325e-05
 1.444086678657e-04 -9.196593335428e-05  2.360904495299e-04
 9.115929530611e-04  2.022775449775e-04 -2.019832427741e-05
-6.722650580093e-04  3.435616194128e-04 -2.474651243198e-04
 4.878079626948e-04 -3.732614150846e-04 -1.898079605801e-04
-6.141740799050e-04  1.986779985744e-04  1.393088459488e-04
 3.009683050531e-04 -2.228622897233e-04  2.928982330521e-04
 1.035351589939e-01  3.606946341328e-02  5.190129772190e-03
 8.079343799153e-02  1.729099679236e-02  2.731735126902e-04
 3.583860580723e-02  5.745280439093e-04  1.388109636604e-03
-4.836064397556e-05 -5.176601962583e-04 -8.295733125502e-05
-2.348801061417e-04  4.120507778978e-04 -1.603022041221e-04
-7.322328549080e-04  5.564113922960e-04 -1.751082950911e-04
 1.493925767345e-02  4.776678644583e-03  2.306525184957e-04
 4.371385432556e-02  2.703355861080e-02  5.356845392802e-03
 1.982022526791e-02  1.346985929256e-02  2.047892707237e-03
 1.721657680919e-02  1.119323817671e-03  1.337669032944e-03
 4.552505664310e-02  1.359170961442e-02  8.867537697742e-04
 6.671899849444e-03 -9.660622192172e-04  8.030758453899e-04
 4.229080736841e-02  1.488855845961e-02  6.147467036554e-03
 7.515695172213e-02  3.034957410418e-02  1.157542051115e-02
 4.823502341256e-02  1.784387081074e-02  1.463550082571e-03
-1.061122763871e-04  1.751593881534e-04  3.578507782292e-05
 2.812461493032e-05 -2.688593292780e-04  3.754625176618e-05
-2.818385594464e-04 -3.470686265918e-04  1.754673752003e-05
 2.602853779438e-02  1.355296981204e-02  8.666942149903e-04
 1.019325750962e-03 -7.778755527583e-05 -2.155341077856e-05
-2.597289481065e-03 -1.330468080189e-03 -2.176519908473e-03
-4.689163955446e-04 -1.730187033597e-03 -5.385286596956e-04
 7.651411430669e-02  3.221666040870e-02  2.314436088412e-02
 7.036184038941e-06  4.675652288298e-04 -6.370175853140e-05
 6.307556234615e-04  4.159201162475e-04 -5.132477782942e-04
 1.817886031408e-04  3.337477369087e-04 -1.080562455326e-03
-1.431348814051e-03 -1.201550132586e-03 -1.024538228624e-03
-1.492054697182e-03 -1.133416839425e-03 -6.108373343676e-04
-1.376725056259e-03 -1.534392434701e-03 -4.078306159608e-04
 3.030056683317e-07  6.277006240864e-05  6.622206123002e-05
 5.177328539863e-04  1.070005628259e-04 -1.141823963239e-04
-5.451345239746e-04  1.161959429885e-04 -1.380153751620e-04
 4.187758481006e-02  1.553137958130e-03  6.259622010742e-03
 6.543090333176e-02  1.157289339857e-02  2.096098803579e-02
 7.215120016514e-02  2.326514367633e-02  3.208042637562e-02
 1.667215701280e-02  4.290776591172e-04 -1.004966788985e-04