# vtk DataFile Version 3.0
fsi_3d_channel_discr_3

ASCII

DATASET UNSTRUCTURED_GRID

POINTS 125 float
 0.500000000000 -0.300000000000  0.150000000000
 0.500000000000 -0.300000000000 -0.250000000000
 0.500000000000  0.300000000000  0.150000000000
 0.500000000000  0.300000000000 -0.250000000000
 0.550000000000 -0.300000000000  0.150000000000
 0.550000000000 -0.300000000000 -0.250000000000
 0.550000000000  0.300000000000  0.150000000000
 0.550000000000  0.300000000000 -0.250000000000
 0.500000000000 -0.000000000000 -0.050000000000
 0.500000000000 -0.150000000000 -0.250000000000
 0.500000000000 -0.150000000000  0.150000000000
 0.500000000000 -0.150000000000  0.050000000000
 0.500000000000 -0.000000000000 -0.250000000000
 0.500000000000 -0.000000000000  0.150000000000
 0.500000000000  0.300000000000 -0.150000000000
 0.500000000000  0.300000000000 -0.050000000000
 0.500000000000 -0.300000000000 -0.050000000000
 0.500000000000  0.300000000000  0.050000000000
 0.500000000000  0.150000000000 -0.150000000000
 0.500000000000 -0.300000000000 -0.150000000000
 0.500000000000 -0.150000000000 -0.150000000000
 0.500000000000  0.150000000000 -0.250000000000
 0.500000000000  0.150000000000  0.150000000000
 0.500000000000  0.000000000000 -0.150000000000
 0.500000000000  0.150000000000  0.050000000000
 0.500000000000 -0.150000000000 -0.050000000000
 0.500000000000  0.150000000000 -0.050000000000
 0.500000000000 -0.300000000000  0.050000000000
 0.500000000000  0.000000000000  0.050000000000
 0.512500000000 -0.300000000000  0.050000000000
 0.512500000000 -0.300000000000  0.150000000000
 0.512500000000 -0.300000000000 -0.250000000000
 0.512500000000 -0.150000000000  0.050000000000
 0.512500000000 -0.300000000000 -0.150000000000
 0.512500000000 -0.300000000000 -0.050000000000
 0.512500000000  0.000000000000 -0.050000000000
 0.512500000000  0.150000000000 -0.250000000000
 0.512500000000  0.300000000000  0.050000000000
 0.512500000000 -0.150000000000 -0.150000000000
 0.512500000000 -0.000000000000  0.050000000000
 0.512500000000  0.150000000000 -0.150000000000
 0.512500000000  0.300000000000  0.150000000000
 0.512500000000  0.300000000000 -0.250000000000
 0.512500000000  0.150000000000  0.150000000000
 0.512500000000 -0.150000000000  0.150000000000
 0.512500000000 -0.150000000000 -0.050000000000
 0.512500000000  0.300000000000 -0.050000000000
 0.512500000000  0.000000000000  0.150000000000
 0.512500000000  0.150000000000 -0.050000000000
 0.512500000000  0.000000000000 -0.250000000000
 0.512500000000  0.300000000000 -0.150000000000
 0.512500000000 -0.000000000000 -0.150000000000
 0.512500000000  0.150000000000  0.050000000000
 0.512500000000 -0.150000000000 -0.250000000000
 0.525000000000  0.300000000000  0.150000000000
 0.525000000000  0.300000000000 -0.250000000000
 0.525000000000 -0.300000000000  0.150000000000
 0.525000000000 -0.300000000000 -0.250000000000
 0.525000000000 -0.000000000000  0.150000000000
 0.525000000000  0.000000000000 -0.050000000000
 0.525000000000 -0.300000000000 -0.050000000000
 0.525000000000  0.300000000000 -0.050000000000
 0.525000000000 -0.150000000000  0.050000000000
 0.525000000000  0.150000000000 -0.150000000000
 0.525000000000  0.150000000000 -0.050000000000
 0.525000000000 -0.150000000000 -0.050000000000
 0.525000000000 -0.000000000000 -0.250000000000
 0.525000000000  0.300000000000 -0.150000000000
 0.525000000000  0.150000000000  0.150000000000
 0.525000000000 -0.300000000000 -0.150000000000
 0.525000000000  0.000000000000  0.050000000000
 0.525000000000 -0.150000000000 -0.150000000000
 0.525000000000 -0.000000000000 -0.150000000000
 0.525000000000  0.150000000000  0.050000000000
 0.525000000000 -0.150000000000  0.150000000000
 0.525000000000 -0.150000000000 -0.250000000000
 0.525000000000  0.150000000000 -0.250000000000
 0.525000000000  0.300000000000  0.050000000000
 0.525000000000 -0.300000000000  0.050000000000
 0.537500000000  0.300000000000 -0.150000000000
 0.537500000000  0.300000000000  0.150000000000
 0.537500000000  0.300000000000 -0.250000000000
 0.537500000000  0.150000000000  0.150000000000
 0.537500000000  0.150000000000 -0.150000000000
 0.537500000000 -0.000000000000  0.150000000000
 0.537500000000  0.000000000000 -0.050000000000
 0.537500000000 -0.150000000000 -0.250000000000
 0.537500000000 -0.150000000000  0.050000000000
 0.537500000000 -0.150000000000  0.150000000000
 0.537500000000  0.000000000000 -0.150000000000
 0.537500000000  0.150000000000  0.050000000000
 0.537500000000 -0.300000000000 -0.150000000000
 0.537500000000 -0.300000000000 -0.250000000000
 0.537500000000 -0.300000000000  0.150000000000
 0.537500000000 -0.150000000000 -0.050000000000
 0.537500000000 -0.300000000000 -0.050000000000
 0.537500000000 -0.000000000000 -0.250000000000
 0.537500000000  0.300000000000 -0.050000000000
 0.537500000000 -0.300000000000  0.050000000000
 0.537500000000  0.000000000000  0.050000000000
 0.537500000000 -0.150000000000 -0.150000000000
 0.537500000000  0.150000000000 -0.050000000000
 0.537500000000  0.150000000000 -0.250000000000
 0.537500000000  0.300000000000  0.050000000000
 0.550000000000 -0.000000000000 -0.050000000000
 0.550000000000  0.150000000000 -0.250000000000
 0.550000000000  0.300000000000  0.050000000000
 0.550000000000  0.150000000000 -0.150000000000
 0.550000000000  0.000000000000 -0.250000000000
 0.550000000000  0.300000000000 -0.050000000000
 0.550000000000 -0.300000000000  0.050000000000
 0.550000000000 -0.300000000000 -0.050000000000
 0.550000000000 -0.000000000000  0.150000000000
 0.550000000000 -0.150000000000  0.050000000000
 0.550000000000 -0.300000000000 -0.150000000000
 0.550000000000  0.000000000000 -0.150000000000
 0.550000000000  0.150000000000  0.050000000000
 0.550000000000  0.150000000000  0.150000000000
 0.550000000000 -0.150000000000 -0.250000000000
 0.550000000000  0.300000000000 -0.150000000000
 0.550000000000 -0.150000000000 -0.150000000000
 0.550000000000  0.150000000000 -0.050000000000
 0.550000000000 -0.150000000000 -0.050000000000
 0.550000000000  0.000000000000  0.050000000000
 0.550000000000 -0.150000000000  0.150000000000

CELLS 6 216
35   2   4   7   6  43  58  88 113 104 107  79  61  37  41  54  80 124 112 117 119 109 106  68  84  82 121 116 123  77 103  97  73 101  99  90
35   5   0   3   1  91  60  29  11   8  18  36  66  86  92  57  31  27  16  19  21  12   9  69  34  33  23  20  25  75  53  49  71  51  45  38
35   4   3   2   7  87  59  40  14  15  17  43  58  88 113 104 107  42  55  81  37  61  79  85  63  83  46  67  50  99 101  73  70  52  48  64
35   3   4   2   0  40  59  87  88  58  43  17  15  14  18   8  11  93  56  30  22  13  10  35  62  32  47  44  74  26  28  24  48  52  70  39
35   3   4   5   7  40  59  87 110 111 114  86  66  36  42  55  81 113 104 107 118 108 105  63  85  83 120 115 122  76 102  96  72 100  94  89
35   4   3   5   0  87  59  40  36  66  86 114 111 110  93  56  30  18   8  11  91  60  29  62  35  32  71  45  51  98  78  95  94 100  72  65

CELL_TYPES 6
71
71
71
71
71
71

POINT_DATA 125

VECTORS Displacement float
 1.007437245275e-01 -3.666261788350e-04 -6.177672870472e-03
 0.000000000000e+00  0.000000000000e+00  0.000000000000e+00
 1.005433075844e-01  2.684199601808e-04 -6.242973612544e-03
 0.000000000000e+00  0.000000000000e+00  0.000000000000e+00
 9.802878969820e-02  6.210468344412e-04 -2.266750252664e-02
 0.000000000000e+00  0.000000000000e+00  0.000000000000e+00
 9.776626111623e-02 -4.960757901873e-04 -2.270334036426e-02
 0.000000000000e+00  0.000000000000e+00  0.000000000000e+00
 3.469401206563e-02 -1.604613138842e-05  3.425037423120e-03
 0.000000000000e+00  0.000000000000e+00  0.000000000000e+00
 9.853280818876e-02 -1.620989972918e-04 -5.716234046034e-03
 6.598811027205e-02 -1.639105172380e-04 -4.119076952477e-04
 0.000000000000e+00  0.000000000000e+00  0.000000000000e+00
 9.785404913729e-02  1.006091013743e-05 -5.504846817133e-03
 1.131000589825e-02  1.009411542215e-04  3.909173621062e-03
 3.636858924401e-02  2.145816342100e-04  3.163621603109e-03
 3.632320974932e-02 -1.782743594928e-04  3.295320725281e-03
 6.765896358651e-02  2.749528971818e-04 -8.068429502591e-04
 1.059967405487e-02  3.699185615074e-05  3.837448143039e-03
 1.116721728484e-02 -5.749985865597e-05  3.901094463688e-03
 1.072200967857e-02 -5.565349231111e-05  3.832160835513e-03
 0.000000000000e+00  0.000000000000e+00  0.000000000000e+00
 9.863920624009e-02  1.756389911028e-04 -5.684590458108e-03
 1.049528522695e-02 -1.823362757688e-05  3.799050497569e-03
 6.596189242647e-02  1.694934509287e-04 -3.656862437612e-04
 3.518514540266e-02 -1.233810227447e-04  3.385831322208e-03
 3.506089181285e-02  1.171917011475e-04  3.380955708982e-03
 6.776404422819e-02 -2.902788475504e-04 -7.907246748402e-04
 6.535644628425e-02  1.488834273232e-06 -2.454293316397e-04
 6.706961971672e-02 -9.947437052827e-05 -4.854531536542e-03
 1.000649249907e-01 -1.164535222104e-04 -1.029424206698e-02
 0.000000000000e+00  0.000000000000e+00  0.000000000000e+00
 6.532200644100e-02 -5.997014920571e-05 -4.409738262497e-03
 1.093889052458e-02 -1.508297098935e-05  1.545477007290e-03
 3.579368265502e-02 -6.534930309695e-05 -2.873956161284e-04
 3.420059764896e-02 -7.964534646507e-06 -4.604624869006e-05
 0.000000000000e+00  0.000000000000e+00  0.000000000000e+00
 6.696682678506e-02  9.676369711789e-05 -4.846863540475e-03
 1.050741022282e-02 -2.661740411434e-05  1.547726382609e-03
 6.469840888344e-02  3.426988601501e-06 -4.229132126475e-03
 1.037903481743e-02  7.967556769225e-06  1.571994419977e-03
 9.984606215534e-02  7.510359767812e-05 -1.035446839253e-02
 0.000000000000e+00  0.000000000000e+00  0.000000000000e+00
 9.795421637064e-02  5.613513172905e-05 -9.773315630906e-03
 9.785487613877e-02 -3.965180112486e-05 -9.788976990418e-03
 3.467972326186e-02 -5.384789300075e-05 -1.108124578095e-04
 3.584948714593e-02  7.359954990907e-05 -4.068404602853e-04
 9.717462218987e-02  3.590852406987e-06 -9.575494526288e-03
 3.456045597864e-02  4.660950091168e-05 -1.229795293640e-04
 0.000000000000e+00  0.000000000000e+00  0.000000000000e+00
 1.106372215083e-02  1.915408478070e-05  1.562014763073e-03
 1.028630449453e-02 -1.207155978553e-05  1.548093208389e-03
 6.529802497076e-02  6.846400398980e-05 -4.373300143112e-03
 0.000000000000e+00  0.000000000000e+00  0.000000000000e+00
 9.915145512956e-02 -1.135927060518e-04 -1.446643118650e-02
 0.000000000000e+00  0.000000000000e+00  0.000000000000e+00
 9.938715582299e-02  1.276132955060e-04 -1.441271775044e-02
 0.000000000000e+00  0.000000000000e+00  0.000000000000e+00
 9.649520625952e-02 -2.293232208036e-06 -1.364827957322e-02
 3.371228180302e-02 -1.950596187814e-07 -3.496207065263e-03
 3.527206278181e-02  4.592885437868e-05 -3.853458994228e-03
 3.533679329726e-02 -6.205998703360e-05 -3.949783059279e-03
 6.466077886543e-02  4.316261810787e-05 -8.394949417121e-03
 1.016337197960e-02 -2.135552194833e-05 -6.694714200876e-04
 3.406942896735e-02 -2.415034718708e-05 -3.609642075587e-03
 3.418865688495e-02  1.564108426833e-05 -3.589754297662e-03
 0.000000000000e+00  0.000000000000e+00  0.000000000000e+00
 1.082161269484e-02 -5.822444212103e-05 -7.551094252653e-04
 9.726685432294e-02 -6.266191725467e-05 -1.386867221874e-02
 1.071304495394e-02  2.775858656028e-05 -7.703693815894e-04
 6.404544325144e-02  5.267639562602e-06 -8.200205880853e-03
 1.029416736781e-02  2.874513770481e-06 -7.025204109664e-04
 1.006593088122e-02 -6.811935262142e-06 -6.717870428594e-04
 6.462742198460e-02 -3.373372970029e-05 -8.365120431579e-03
 9.717693493450e-02  8.082540817059e-05 -1.386519963392e-02
 0.000000000000e+00  0.000000000000e+00  0.000000000000e+00
 0.000000000000e+00  0.000000000000e+00  0.000000000000e+00
 6.629429873816e-02 -7.761668700626e-05 -8.873683705540e-03
 6.638012889464e-02  8.582591543060e-05 -8.894314047722e-03
 1.057992855813e-02 -1.336703892391e-04 -3.064285158168e-03
 9.845884260546e-02 -3.024200409015e-04 -1.858187806689e-02
 0.000000000000e+00  0.000000000000e+00  0.000000000000e+00
 9.658025657683e-02 -1.815840355031e-04 -1.796751928067e-02
 9.947900922306e-03 -5.048434819812e-05 -2.915390727584e-03
 9.581542389795e-02 -5.325581128140e-06 -1.772667423142e-02
 3.322590000041e-02  6.826224238468e-06 -6.956504236853e-03
 0.000000000000e+00  0.000000000000e+00  0.000000000000e+00
 6.400096252696e-02  1.465348641629e-04 -1.237986378470e-02
 9.649864065799e-02  2.023919455064e-04 -1.794625395718e-02
 9.858604834500e-03 -8.814622224678e-07 -2.893844062489e-03
 6.396863533099e-02 -1.361512859376e-04 -1.235948036297e-02
 1.048773426223e-02  7.046187630275e-05 -3.085172538322e-03
 0.000000000000e+00  0.000000000000e+00  0.000000000000e+00
 9.870919450041e-02  3.714662812010e-04 -1.853620177698e-02
 3.369871907225e-02  8.485597039666e-05 -7.067874378533e-03
 3.475717913705e-02  1.570029327040e-04 -7.404889758452e-03
 0.000000000000e+00  0.000000000000e+00  0.000000000000e+00
 3.482137332550e-02 -1.967058940458e-04 -7.492963673894e-03
 6.569111321844e-02  2.694156338599e-04 -1.293905710934e-02
 6.338099905689e-02  6.591835597252e-06 -1.216476412579e-02
 1.007014552578e-02  3.226276647739e-05 -2.957419174100e-03
 3.357932092359e-02 -9.472497559700e-05 -7.099362239869e-03
 0.000000000000e+00  0.000000000000e+00  0.000000000000e+00
 6.562326955805e-02 -2.521162793906e-04 -1.290159605922e-02
 3.273544640854e-02  1.517483644807e-05 -1.043414755399e-02
 0.000000000000e+00  0.000000000000e+00  0.000000000000e+00
 6.494876269736e-02 -4.303826090900e-04 -1.694452424025e-02
 9.731332616389e-03 -7.806679526754e-05 -5.192861143840e-03
 0.000000000000e+00  0.000000000000e+00  0.000000000000e+00
 3.430151746208e-02 -3.352046621791e-04 -1.106197078809e-02
 6.499739812205e-02  4.559148905781e-04 -1.700362204401e-02
 3.423795382604e-02  2.691892736892e-04 -1.098446646577e-02
 9.513516630664e-02 -9.781300816041e-06 -2.181142435101e-02
 6.333504787906e-02  2.484102852638e-04 -1.637429901124e-02
 1.024938735756e-02  1.128634654256e-04 -5.437343778047e-03
 9.650501585177e-03  5.443887098538e-06 -5.150742006031e-03
 6.330632057191e-02 -2.390378957914e-04 -1.636621021433e-02
 9.589309759758e-02 -3.023896313645e-04 -2.207193712501e-02
 0.000000000000e+00  0.000000000000e+00  0.000000000000e+00
 1.034099997013e-02 -2.094530182358e-04 -5.424861188845e-03
 9.857354064467e-03  6.147353492839e-05 -5.244376492613e-03
 3.307617159834e-02 -1.663439261617e-04 -1.060875815655e-02
 3.320020400488e-02  1.550705190389e-04 -1.055915804711e-02
 6.272780196013e-02  7.952513187410e-06 -1.614609813881e-02
 9.581591630300e-02  3.285279895575e-04 -2.203538180158e-02
