# vtk DataFile Version 3.0
fsi_3d_channel_discr_2

ASCII

DATASET UNSTRUCTURED_GRID

POINTS 1765 float
 0.500000000000 -0.300000000000  0.150000000000
 0.500000000000 -0.300000000000 -0.250000000000
 0.500000000000  0.300000000000  0.150000000000
 0.500000000000  0.300000000000 -0.250000000000
 0.550000000000 -0.300000000000  0.150000000000
 0.550000000000 -0.300000000000 -0.250000000000
 0.550000000000  0.300000000000  0.150000000000
 0.550000000000  0.300000000000 -0.250000000000
 0.000000000000 -0.500000000000  0.250000000000
 0.000000000000 -0.500000000000 -0.250000000000
 0.000000000000  0.500000000000  0.250000000000
 0.000000000000  0.500000000000 -0.250000000000
 3.000000000000 -0.500000000000 -0.250000000000
 3.000000000000 -0.500000000000  0.250000000000
 3.000000000000  0.500000000000  0.250000000000
 3.000000000000  0.500000000000 -0.250000000000
 0.000000000000  0.000000000000  0.250000000000
 0.000000000000  0.000000000000 -0.250000000000
 0.500000000000 -0.500000000000 -0.250000000000
 1.000000000000 -0.500000000000 -0.250000000000
 1.500000000000 -0.500000000000 -0.250000000000
 2.000000000000 -0.500000000000 -0.250000000000
 2.500000000000 -0.500000000000 -0.250000000000
 0.500000000000 -0.500000000000  0.250000000000
 1.000000000000 -0.500000000000  0.250000000000
 1.500000000000 -0.500000000000  0.250000000000
 2.000000000000 -0.500000000000  0.250000000000
 2.500000000000 -0.500000000000  0.250000000000
 0.500000000000  0.500000000000  0.250000000000
 1.000000000000  0.500000000000  0.250000000000
 1.500000000000  0.500000000000  0.250000000000
 2.000000000000  0.500000000000  0.250000000000
 2.500000000000  0.500000000000  0.250000000000
 3.000000000000  0.000000000000  0.250000000000
 0.500000000000  0.500000000000 -0.250000000000
 1.000000000000  0.500000000000 -0.250000000000
 1.500000000000  0.500000000000 -0.250000000000
 2.000000000000  0.500000000000 -0.250000000000
 2.500000000000  0.500000000000 -0.250000000000
 3.000000000000  0.000000000000 -0.250000000000
 0.500000000000  0.000000000000  0.250000000000
 1.000000000000  0.000000000000  0.250000000000
 1.500000000000  0.000000000000  0.250000000000
 2.000000000000  0.000000000000  0.250000000000
 2.500000000000  0.000000000000  0.250000000000
 0.947279041455  0.018772925920 -0.250000000000
 1.711769481163  0.011493628114 -0.250000000000
 2.295009727468  0.010446510366 -0.250000000000
 0.278989010989  0.000000000000 -0.250000000000
 1.278266776492 -0.148780289200 -0.250000000000
 0.255797802198 -0.260000000000 -0.250000000000
 0.255797802198  0.260000000000 -0.250000000000
 2.645833333333 -0.145833333333 -0.250000000000
 1.252393851089  0.207779978465 -0.250000000000
 2.693681945194  0.182791961798 -0.250000000000
-0.000000000000 -0.500000000000  0.000000000000
-0.000000000000 -0.250000000000  0.250000000000
-0.000000000000  0.500000000000  0.000000000000
-0.000000000000 -0.500000000000 -0.125000000000
-0.000000000000 -0.375000000000  0.250000000000
-0.000000000000  0.500000000000  0.125000000000
-0.000000000000 -0.000000000000  0.000000000000
-0.000000000000 -0.000000000000  0.125000000000
-0.000000000000 -0.500000000000  0.125000000000
-0.000000000000 -0.125000000000  0.250000000000
-0.000000000000  0.500000000000 -0.125000000000
-0.000000000000 -0.000000000000 -0.125000000000
-0.000000000000  0.375000000000  0.250000000000
-0.000000000000 -0.250000000000 -0.000000000000
-0.000000000000  0.250000000000  0.250000000000
-0.000000000000  0.250000000000 -0.250000000000
-0.000000000000  0.125000000000  0.125000000000
-0.000000000000  0.375000000000 -0.125000000000
-0.000000000000 -0.375000000000  0.125000000000
-0.000000000000  0.125000000000 -0.250000000000
-0.000000000000 -0.125000000000 -0.125000000000
-0.000000000000  0.125000000000  0.250000000000
-0.000000000000  0.375000000000 -0.250000000000
-0.000000000000 -0.375000000000 -0.250000000000
-0.000000000000 -0.125000000000  0.125000000000
-0.000000000000  0.125000000000  0.000000000000
-0.000000000000  0.375000000000 -0.000000000000
-0.000000000000 -0.375000000000 -0.125000000000
 0.000000000000 -0.250000000000 -0.250000000000
 0.000000000000 -0.125000000000 -0.250000000000
 0.000000000000 -0.125000000000 -0.000000000000
 0.000000000000  0.250000000000  0.125000000000
 0.000000000000  0.250000000000 -0.125000000000
 0.000000000000 -0.250000000000 -0.125000000000
 0.000000000000 -0.375000000000 -0.000000000000
 0.000000000000 -0.250000000000  0.125000000000
 0.000000000000  0.125000000000 -0.125000000000
 0.000000000000  0.375000000000  0.125000000000
 0.000000000000  0.250000000000 -0.000000000000
 0.063949450549  0.065000000000  0.125000000000
 0.063949450549 -0.440000000000 -0.125000000000
 0.063949450549 -0.315000000000  0.125000000000
 0.063949450549  0.440000000000  0.000000000000
 0.063949450549 -0.065000000000  0.125000000000
 0.063949450549  0.065000000000 -0.250000000000
 0.063949450549 -0.440000000000  0.125000000000
 0.063949450549  0.440000000000  0.125000000000
 0.063949450549 -0.315000000000 -0.125000000000
 0.063949450549 -0.315000000000 -0.000000000000
 0.063949450549  0.190000000000 -0.250000000000
 0.063949450549  0.315000000000  0.125000000000
 0.063949450549 -0.190000000000 -0.125000000000
 0.063949450549 -0.065000000000 -0.125000000000
 0.063949450549 -0.065000000000 -0.250000000000
 0.063949450549  0.065000000000 -0.125000000000
 0.063949450549  0.190000000000 -0.000000000000
 0.063949450549  0.315000000000 -0.125000000000
 0.063949450549 -0.190000000000 -0.000000000000
 0.063949450549  0.190000000000 -0.125000000000
 0.063949450549  0.315000000000  0.000000000000
 0.063949450549  0.440000000000 -0.250000000000
 0.063949450549 -0.190000000000 -0.250000000000
 0.063949450549 -0.440000000000 -0.000000000000
 0.063949450549 -0.440000000000 -0.250000000000
 0.063949450549  0.190000000000  0.125000000000
 0.063949450549  0.315000000000 -0.250000000000
 0.063949450549 -0.190000000000  0.125000000000
 0.063949450549 -0.065000000000 -0.000000000000
 0.063949450549  0.065000000000  0.000000000000
 0.063949450549  0.440000000000 -0.125000000000
 0.063949450549 -0.315000000000 -0.250000000000
 0.069747252747  0.000000000000  0.125000000000
 0.069747252747 -0.000000000000  0.000000000000
 0.069747252747  0.000000000000 -0.125000000000
 0.069747252747  0.000000000000 -0.250000000000
 0.125000000000  0.075000000000  0.225000000000
 0.125000000000 -0.500000000000  0.250000000000
 0.125000000000 -0.500000000000 -0.250000000000
 0.125000000000  0.500000000000  0.125000000000
 0.125000000000 -0.075000000000  0.225000000000
 0.125000000000 -0.500000000000  0.125000000000
 0.125000000000 -0.125000000000  0.250000000000
 0.125000000000  0.500000000000 -0.250000000000
 0.125000000000  0.200000000000  0.225000000000
 0.125000000000  0.325000000000  0.225000000000
 0.125000000000  0.450000000000  0.225000000000
 0.125000000000  0.375000000000  0.250000000000
 0.125000000000 -0.000000000000  0.250000000000
 0.125000000000  0.500000000000  0.250000000000
 0.125000000000  0.125000000000  0.250000000000
 0.125000000000  0.250000000000  0.250000000000
 0.125000000000 -0.500000000000 -0.000000000000
 0.125000000000 -0.250000000000  0.250000000000
 0.125000000000  0.500000000000 -0.125000000000
 0.125000000000 -0.500000000000 -0.125000000000
 0.125000000000 -0.375000000000  0.250000000000
 0.125000000000  0.500000000000 -0.000000000000
 0.127898901099  0.130000000000 -0.000000000000
 0.127898901099 -0.380000000000  0.000000000000
 0.127898901099 -0.130000000000 -0.000000000000
 0.127898901099  0.380000000000 -0.250000000000
 0.127898901099 -0.380000000000 -0.250000000000
 0.127898901099 -0.380000000000 -0.125000000000
 0.127898901099 -0.255000000000 -0.000000000000
 0.127898901099  0.380000000000 -0.125000000000
 0.127898901099  0.380000000000  0.000000000000
 0.127898901099 -0.130000000000 -0.250000000000
 0.127898901099 -0.255000000000 -0.125000000000
 0.127898901099  0.255000000000  0.000000000000
 0.127898901099  0.255000000000 -0.250000000000
 0.127898901099 -0.255000000000 -0.250000000000
 0.127898901099  0.130000000000 -0.250000000000
 0.127898901099 -0.130000000000 -0.125000000000
 0.127898901099  0.130000000000 -0.125000000000
 0.127898901099  0.255000000000 -0.125000000000
 0.133696703297  0.065000000000 -0.000000000000
 0.133696703297 -0.065000000000 -0.125000000000
 0.133696703297  0.065000000000 -0.125000000000
 0.133696703297  0.065000000000 -0.250000000000
 0.133696703297 -0.065000000000 -0.250000000000
 0.133696703297 -0.065000000000 -0.000000000000
 0.139494505494  0.000000000000 -0.000000000000
 0.139494505495 -0.000000000000 -0.250000000000
 0.139494505495 -0.000000000000 -0.125000000000
 0.188949450549 -0.140000000000  0.100000000000
 0.188949450549 -0.440000000000 -0.125000000000
 0.188949450549 -0.315000000000  0.125000000000
 0.188949450549  0.440000000000 -0.125000000000
 0.188949450549  0.265000000000  0.100000000000
 0.188949450549  0.440000000000  0.125000000000
 0.188949450549 -0.440000000000 -0.250000000000
 0.188949450549 -0.440000000000  0.125000000000
 0.188949450549  0.440000000000 -0.000000000000
 0.188949450549  0.390000000000  0.100000000000
 0.188949450549 -0.440000000000  0.000000000000
 0.188949450549 -0.190000000000  0.125000000000
 0.188949450549  0.440000000000 -0.250000000000
 0.188949450549  0.140000000000  0.100000000000
 0.191848351648 -0.320000000000 -0.125000000000
 0.191848351648 -0.195000000000 -0.125000000000
 0.191848351648  0.320000000000 -0.250000000000
 0.191848351648 -0.195000000000 -0.250000000000
 0.191848351648  0.195000000000 -0.125000000000
 0.191848351648  0.195000000000 -0.250000000000
 0.191848351648  0.320000000000 -0.125000000000
 0.191848351648 -0.320000000000 -0.250000000000
 0.194747252747 -0.075000000000  0.100000000000
 0.194747252747  0.075000000000  0.100000000000
 0.197646153846  0.130000000000 -0.125000000000
 0.197646153846  0.130000000000 -0.250000000000
 0.197646153846 -0.130000000000 -0.125000000000
[...]
POINT_DATA 1765

VECTORS Displacement float
 1.007435066136e-01 -3.666269628595e-04 -6.177679432133e-03
-4.574118390599e-09 -5.991180808969e-10  1.496490124602e-09
 1.005430455311e-01  2.683991066382e-04 -6.242964172213e-03
-3.168630959928e-08  3.889438065462e-10  1.145497077784e-10
 9.802852110685e-02  6.210261634139e-04 -2.266741325603e-02
-1.247998165392e-08  1.171562534037e-09 -3.961285202405e-10
 9.776587443483e-02 -4.960569818726e-04 -2.270318087632e-02
-3.705668821268e-08 -2.691596927274e-09  1.105558942744e-08
 1.807811562577e-09  1.469222248644e-10  1.083950776520e-10
 4.188128055139e-10  7.871341508879e-11  2.471606595151e-11
 1.267857443021e-09  1.146360487538e-09  1.193036297196e-09
 1.051004859134e-09  1.782602534525e-10  9.838376768061e-10
 6.465802603411e-13 -1.121107206420e-13 -2.150771124281e-12
 4.860438588299e-13 -1.819900742951e-13 -1.039732997344e-12
 9.131916444152e-14  7.249987054011e-15 -4.004687360824e-14
 7.738646805718e-14  1.024307866737e-14 -7.929829770923e-14
 3.174640486259e-09 -1.764041688155e-09  7.961482468956e-09
-1.125603454970e-10 -9.335457363978e-11  2.940136232287e-10
-1.394689481312e-10  3.135379735481e-10  4.055902668325e-10
 3.675397489079e-10  1.436122158024e-09 -3.676941341596e-10
 3.483614561829e-10  2.412376849406e-10 -1.177194081621e-10
 1.353839492526e-11  1.462198605102e-11 -4.770621989174e-11
 4.583471382829e-12  6.190376812585e-13 -1.335151435715e-11
-3.808755487251e-09 -5.257318069794e-09  2.070769989328e-09
-5.347886050445e-10  6.699271156515e-10 -2.999474197222e-09
 4.018451745004e-10  1.151362125513e-10 -1.295336529649e-09
 3.624988060265e-11 -3.574375558631e-12 -1.592580853981e-10
 6.492582596560e-12 -1.564683033391e-12 -1.586876653477e-11
-3.055112887366e-09  1.123279247192e-09  1.395196227106e-09
 1.914457448085e-09 -1.364870669088e-09 -4.754419952696e-09
-1.185343115668e-11 -2.473647540530e-11 -7.856557086125e-11
 2.117886671421e-12 -2.834269400728e-12 -5.718023982933e-12
 8.825308191462e-13 -2.927348632046e-13 -7.373854951477e-13
 7.737488849296e-14 -1.855255623345e-14 -1.111145812013e-13
-1.392305703969e-09 -5.335268719671e-10  4.185689562185e-10
 1.216278533606e-09 -2.945848267145e-09 -1.077147135581e-10
 6.271220815612e-10 -5.519322039522e-10 -3.605322786820e-10
 3.107998747423e-11 -2.081324577696e-11 -3.376409675297e-11
 1.153896077294e-12 -2.080934739098e-13 -1.030954198025e-12
 1.901624035751e-13 -3.297769074535e-14 -3.257746318538e-13
-4.806617343056e-09 -3.946787857468e-10  1.337015501720e-09
 6.267124464881e-10 -8.480199461144e-10 -1.212984426705e-08
 5.956047388198e-10 -1.735668767008e-10 -1.533921382896e-09
 2.897838870055e-11 -1.278663446932e-11 -7.548918985513e-11
 4.612438935920e-13 -2.229146656855e-13 -1.902959053479e-12
-1.296927444355e-09 -5.727970526270e-10  2.093139827070e-09
 7.486427255905e-11 -2.224546974174e-11  2.161628157328e-11
 9.719964684700e-12 -2.562495529210e-12 -1.220109240543e-12
-1.590789208151e-09 -1.958727780796e-11 -6.189542445516e-11
 3.894173934226e-10  2.114315070926e-10  1.022628180206e-10
 2.258527506213e-09  1.468956885736e-09 -2.339304445162e-10
 1.810227626760e-09 -1.719878930340e-09 -6.565466635459e-10
 4.580459559138e-13  1.301108822719e-13 -6.580302391015e-13
 2.204458968586e-10 -2.681045447871e-10  5.163518273191e-11
 5.350349057180e-13 -3.099912838722e-13 -3.331990688906e-13
 1.975410582731e-11 -1.332229013987e-10 -2.604193082110e-11
 3.077826594505e-10 -3.641614956889e-10  1.017004676269e-09
-2.339282980011e-10  3.845708061086e-10  2.508137080334e-11
-1.280136123211e-10 -3.699694356002e-10 -2.066466910882e-10
-1.612742559187e-10 -1.757703403552e-10  4.947506439234e-10
 1.026165919471e-09 -8.231992031176e-10  6.463723560051e-11
-4.783227522227e-11 -6.817394493111e-11  1.104188765741e-10
 1.892572135737e-09  3.388576215403e-11 -4.619873578782e-10
 7.495479170892e-10  5.308191216081e-10  2.406385339293e-10
-4.404300084877e-10 -6.559195852930e-10  8.820618785190e-10
-7.103582892900e-10  1.260355150528e-11 -4.196127396917e-10
-6.561482342891e-11  4.862614156147e-11  1.624611602561e-10
 2.907629322697e-09  2.801421595342e-09  2.212003340775e-09
-6.971075300403e-11  1.558367859290e-10  6.920608171862e-11
 6.943852735589e-09  2.057780833728e-09  2.919372641695e-09
-3.630455503656e-10 -3.239666442634e-13  1.160281100295e-10
-1.865402997042e-11  1.457021999274e-10 -7.868441804926e-10
-7.905175737658e-10 -1.014811261247e-10 -4.129215464880e-10
-2.568505238556e-10  1.733913323874e-11  7.972886349452e-11
-1.700269470992e-10 -1.017160175316e-10  2.165201256194e-10
-1.130984263066e-10  4.395851414988e-11  1.387350736843e-10
 6.206690340864e-09  9.469066418848e-10  3.977294443745e-09
 6.062417222556e-12 -3.443598871007e-11  3.937597162351e-10
-7.035590667317e-12 -1.300439312518e-10 -4.141499704710e-11
-4.173355843755e-10  6.320792022470e-11 -5.778967349957e-10
-7.608145075429e-10  9.310496841121e-11 -1.640015756768e-10
 5.674243559091e-10  9.950298597973e-11  5.018227014208e-10
 3.765328500731e-11  1.355535039846e-10  1.033952739368e-10
-1.082331274672e-10 -8.041918591315e-11 -1.330334642467e-10
 1.329409814944e-10  1.494716375564e-10 -9.563261964558e-11
 1.722021930219e-10  6.363236941058e-12  1.745154836017e-10
-9.386553331461e-10 -1.553462189047e-10 -8.662730542111e-10
 2.403250339611e-10 -7.893407511820e-11  2.480642606031e-10
 1.361025459621e-10 -1.022771807656e-10  1.225229146924e-10
-1.262013443958e-10  5.415211517247e-11 -2.486340581819e-10
 1.363084571439e-10 -4.563582807688e-11 -1.801204430704e-10
 1.084622304634e-10 -3.347754515299e-11  2.819711976725e-10
-5.065984102389e-10 -5.403652410750e-10 -5.459747342742e-10
 6.328748571950e-10 -2.667917363844e-10  5.225976450171e-10
 2.325775701863e-03 -5.554113153103e-05 -2.376000121405e-04
 5.249081340304e-04  3.189746034460e-04  2.350077389301e-04
 1.795811345206e-03  5.674013992941e-04 -1.635008240623e-04
 8.745687971057e-04 -4.821685396000e-04  1.244552109251e-04
 2.476970555332e-03  1.869719931043e-04 -2.199732697491e-04
 4.641227851811e-10 -2.271345331579e-10 -5.917864368510e-11
 7.742300132188e-04  4.012859273401e-04 -1.024231596877e-04
 7.939398449946e-04 -4.436139478842e-04 -1.083539079319e-04
 1.290117425109e-03  4.859273715164e-04  5.393132930689e-04
 2.018264150435e-03  6.922399655479e-04  3.223309865560e-04
 1.592861521306e-10  1.628455545134e-11  6.722868614591e-11
 1.824174106888e-03 -6.169459756640e-04 -1.777377228365e-04
 1.793321205415e-03  3.546939719542e-04  7.307844060014e-04
 2.136500158220e-03  1.474674042209e-04  8.392571881151e-04
 1.311956640436e-10  1.871116665113e-10  3.742542053516e-12
 2.128308440252e-03 -1.283773986092e-04  8.491081957312e-04
 2.831111045331e-03 -4.586206398578e-04  4.533028845981e-04
 1.302969072649e-03 -4.881917588505e-04  5.379432782152e-04
 2.818163872760e-03  4.963945208105e-04  4.503216929279e-04
 1.814296308684e-03 -3.372687058500e-04  7.362801138588e-04
 2.064619455754e-03 -7.033597630040e-04  3.071413867613e-04
-4.385796747918e-10  2.915978314196e-10 -4.723079892552e-10
 1.185298676893e-10 -8.220692996482e-11  1.926142075025e-10
 8.511470635163e-04  4.551998548132e-04  1.330328350659e-04
-4.707910731328e-10 -2.437442145769e-10 -9.086271111797e-11
 2.460745974009e-03 -3.966632279013e-04 -1.787151335337e-04
 3.560457091204e-10 -1.118209877824e-10 -3.910552270662e-12
 2.421527825947e-03  3.487982748463e-04 -1.724130892163e-04
 3.311582941596e-03  2.350528267000e-04  5.520942063462e-04
 3.289378900556e-03 -2.320997906890e-04  5.912237528145e-04
 4.947546263429e-04 -3.243255293850e-04  2.489188923588e-04
 2.038824791426e-10  1.221827933403e-10  1.139229224890e-10
 4.442329389071e-03  1.112341467889e-06  1.778264816844e-04
 4.043017589983e-03  8.021198978598e-06  7.572870680072e-04
 2.343864835516e-03  6.081615499314e-06  9.065992870790e-04
 2.830913338260e-10  3.684171683468e-11 -2.189216319975e-10
 1.784761549019e-03 -6.257739619739e-05 -3.269522895943e-04
 1.816180826018e-09  1.398561281847e-09  1.279377015719e-09
-3.268604595332e-10 -1.340193983759e-10 -3.364048775010e-11
-1.188440023608e-09  3.630835712811e-10 -7.707533410066e-11
 2.070369894072e-03  5.974489362899e-05 -4.604911197601e-04
 2.254176193216e-11  1.788668785612e-10  1.635306783980e-11
 3.617916713949e-09 -7.405399258065e-10  1.400725034431e-11
-2.449356216197e-10  2.488494981091e-10 -2.779904171358e-12
 2.207858954419e-03 -1.166783471448e-04 -2.394348706306e-04
 1.740996889860e-03 -1.365190413708e-04 -1.923822996632e-04
 1.363196848987e-03  1.637259529688e-04 -1.239393775729e-04
 7.021822841196e-09  2.002331355405e-09 -1.687338596317e-09
 2.034067439082e-08 -8.317044289776e-10 -1.342814703606e-09
 5.779569141665e-09 -2.099252494298e-09  1.241954713490e-09
 3.059311235726e-09  5.629837151220e-11 -1.416622300420e-09
 7.691430055034e-09  8.868566953750e-10 -1.404580810876e-09
-5.533375234383e-11 -8.235310084136e-11 -1.063716755987e-10
-1.770480049348e-10  1.164632375443e-10  2.214900789088e-10
 1.766735040051e-10 -4.275046314799e-11  1.146894014934e-10
 1.346479513730e-10  1.370524841557e-10  4.402054570795e-11
 3.624565060564e-10 -1.703141550062e-10 -5.518954661901e-11
 3.775442476387e-11  5.964487350102e-11 -6.663733181253e-11
 6.432103276099e-03 -5.127329733979e-04  1.102413108504e-03
 3.098389532465e-03  1.133261793260e-03  5.244803426566e-04
 6.553706669009e-03  6.060684412113e-04  9.719139529944e-04
-1.241595783742e-10  6.468787110455e-11 -2.395706602989e-10
 1.146007899882e-11  9.389953746632e-11  5.546535923098e-13
 1.836757310899e-03  7.164850052986e-04  6.721084672651e-04
 5.253040288529e-03  1.036296015693e-03  7.895090923717e-04
 1.782471770200e-03 -7.441400640966e-04  6.993926208089e-04
 3.057851472998e-03 -1.218927628504e-03  4.681023531259e-04
 4.807359446465e-10  4.312076431765e-10 -4.199708408532e-10
 3.222183621018e-03  7.272285327217e-04  1.133216580998e-03
 5.332706894539e-03 -1.078820452681e-03  8.178805710832e-04
 1.146385885349e-10  6.286907026181e-11 -1.066150466665e-10
-1.121622032577e-10 -1.263646360066e-10 -5.870862406244e-11
 7.049858048546e-10 -4.325531584027e-10 -8.465298880879e-11
 4.089127573653e-03  4.096806714127e-04  1.359752581813e-03
 4.080870720802e-03 -3.786356937772e-04  1.333748641848e-03
 3.302843358026e-03 -7.294506762105e-04  1.136018166495e-03
 7.160899847879e-03 -2.490816573920e-04  1.120637682296e-03
 4.584119372933e-03  2.399461012843e-04  1.434360957121e-03
 4.565849871433e-03 -2.186410506900e-04  1.443402761561e-03
-2.547695358464e-10  9.859521902158e-11  2.553403317280e-11
-1.345023645376e-10 -1.303997445861e-10  5.098613326554e-11
 7.236926724795e-03  3.059226993479e-04  1.081838177849e-03
 9.560509347406e-03  1.406328314071e-05  1.234938426273e-03
 9.999643877985e-11  4.557684586921e-12 -2.028490434969e-11
 4.974112850761e-03  9.984607898713e-06  1.500255369021e-03
 1.098284361878e-02  5.691356508598e-04  3.260041911559e-04
 1.462844621558e-03  6.219749737890e-04  5.224080752010e-04
 6.424402885396e-03  1.582892657836e-03 -1.379214437837e-04
 1.431691934744e-03 -6.106498691104e-04  5.127282702414e-04
 9.009084628666e-03 -1.404050273828e-03  1.613225510401e-04
 2.311689746327e-03 -7.788173660256e-04 -9.851444775659e-05
 3.078703833935e-10  1.927623987994e-10  9.358124549886e-11
 2.372769726000e-03  8.763018913183e-04 -7.882910583057e-05
 2.541743634323e-03 -9.034031837505e-04  3.586912877282e-04
 4.896339740099e-03 -1.173338321803e-03 -6.128001672474e-05
 2.591511633881e-03  9.881525187594e-04  3.861460282698e-04
 9.214348587538e-03  1.068187101141e-03 -1.694279674844e-04
 2.036573789628e-10 -2.157682380412e-10  1.437295496647e-10
 1.136094194471e-02 -7.474050352778e-04  3.004618820922e-04
 3.983288865503e-03  9.955121757869e-04  1.445812387452e-03
 5.934424944053e-03  7.984443925537e-04  1.778425832279e-03
 1.929937634411e-10 -3.735520933978e-10 -7.607941350678e-11
 6.737484129051e-10  1.756656925837e-10 -3.406493108397e-10
 5.969177572607e-03 -7.508926460410e-04  1.853535844057e-03
 7.425647229370e-10 -8.854199365642e-11  1.967051700277e-10
 3.941385110340e-03 -1.070720421531e-03  1.457852832229e-03
 1.781707879292e-10  5.167791333839e-10  1.416168451630e-10
 1.091573605231e-02  3.811412532079e-04  2.512428475231e-04
 1.109214677860e-02 -4.549296242104e-04  2.038775997698e-04
 6.486085598454e-03 -4.489141630643e-04  2.022718572667e-03
-2.655663688988e-10  9.745275778135e-11 -2.362296232455e-10
 6.515049307384e-03  4.532869279970e-04  1.984770494196e-03
-4.636169456937e-10 -9.910903499757e-11 -2.312108135395e-10
 7.007343055617e-03 -2.002840970804e-04  2.031884998497e-03
 7.044902994340e-03  2.046649296372e-04  2.012224480038e-03
 1.989901955781e-10  1.647801082100e-10 -3.270525312709e-10
 4.455833522326e-10 -1.738150654458e-10 -3.295491523224e-10
 8.254865819122e-03  5.100841651834e-06  1.892041574118e-03
 3.980001352426e-10 -1.794324982229e-11  2.698061396673e-11
 5.900834275131e-03  6.157253445594e-04 -4.483190953234e-04
 6.621736607549e-03 -6.480628764431e-04 -6.770957228983e-04
 1.119839315293e-10 -1.453088230078e-10 -5.404181741832e-11
 2.302130938617e-09 -1.775319204391e-10  1.376684020650e-09
 2.200922924928e-09 -1.893629418143e-10  1.217293024513e-09
 1.348883036641e-09 -8.293812516531e-10  4.198132439796e-10
 3.988685552955e-03 -1.361567278309e-04 -4.824844516154e-04
 7.072393802412e-04 -9.313192892015e-04 -2.871497193122e-04
 6.882668265265e-10 -2.760780659106e-09  6.876508814967e-10
 1.388126915611e-09  1.248315155966e-09  7.879359320888e-10
 4.119463100636e-03 -2.250590142332e-04 -5.369605911727e-04
-1.884436583051e-09 -6.578269421157e-10  5.333132863441e-10
 4.023127249189e-09  1.151734776994e-09  5.970845951169e-10
-1.238787389799e-09 -6.790666953413e-10 -6.066167183388e-10
-3.662436116293e-09 -6.271277440234e-11  1.461932984394e-09
 2.576143583719e-03 -3.608664484735e-04 -4.040914032902e-04
 7.953514715594e-04 -1.350004812361e-04 -8.231979158468e-05
 4.806617371266e-03 -8.918824037369e-04 -6.391810856700e-04
-1.445709913651e-09  4.816474326313e-10 -4.800764698852e-10
 1.111671606662e-09  6.999046082981e-10  1.750618724007e-10
 3.387239750352e-03  1.888982098292e-05 -2.675301472674e-04
 5.181058377703e-11 -6.850596276310e-11 -6.963383796323e-12
 6.173213018479e-09 -1.219100892502e-09  4.863661143612e-10
 7.369928716049e-03 -7.634056312014e-05 -4.404186988246e-04
 4.189774516739e-03  3.764384562196e-04 -3.927811030167e-04
 1.027307721669e-10  2.954282128198e-11  1.002156888564e-10
-2.360008529043e-09 -1.418574582494e-10  1.234361256697e-10
 9.613809127764e-11  1.938918116725e-10  8.438874027962e-11
 3.838007136975e-03 -1.089197224320e-03  1.216182426324e-03
 1.408290072758e-02  1.335366812700e-03  2.727291993851e-03
 7.472603469144e-03 -1.967195088080e-03  1.049441578492e-03
 7.507269526304e-03  2.099740056966e-03  1.046439159148e-03
 3.864081211301e-03  1.170115351419e-03  1.219567487085e-03
 9.697306040379e-03 -1.871561293655e-03  1.570388256657e-03
 1.372838909003e-02  2.085307380861e-03  2.065846970567e-03
 1.419419447032e-02 -1.444325790407e-03  2.624854386618e-03
-2.791235559446e-10 -2.499661193049e-11 -6.897646144606e-11
-9.786069362855e-11 -1.041448679948e-10 -4.586571228645e-11
 1.584606269741e-02 -9.033604956005e-04  3.096130453138e-03
 1.570426610578e-02  8.302802242421e-04  3.151548277547e-03
 4.423552464022e-10 -1.968830478862e-10  1.390353095079e-10
-5.714397229630e-10  1.562613319733e-10  7.079734783530e-11
 1.625949934510e-02 -4.560649973984e-04  3.437966898942e-03
 1.611341376467e-02  4.016935034711e-04  3.477340628863e-03
 8.119240773014e-11  1.544878078064e-10  6.364449909643e-10
 1.096408901210e-09 -2.343467278397e-10  4.793942799002e-10
-1.305464070980e-09  4.558127638662e-10  6.883725165899e-10
-5.989528038541e-12 -4.718358274714e-10  5.592533001587e-10
 2.306937258147e-02  2.077173283410e-03  1.428092819996e-03
 2.101189330186e-02  2.793135919288e-03  2.569933503378e-04
 4.872895374393e-03  1.462130476338e-03  6.914920639687e-04
 9.993611856902e-03 -2.798417995120e-03  1.830700119242e-04
 4.904975636486e-03 -1.498070152167e-03  7.015951157042e-04
 4.587046505531e-03  1.499523306806e-03  9.151987979104e-07
 4.706957330856e-03 -1.678343289415e-03  5.982719668879e-05
 2.553659844329e-03  8.576757795214e-04  7.914132951069e-04
 1.374493550890e-02 -3.295209848603e-03  7.608902793900e-04
 2.556040691808e-03 -8.220242352715e-04  7.954130475857e-04
-4.332826043859e-10  1.651199690218e-10  2.701919342007e-11
 2.265547934439e-02 -1.838485099126e-03  1.417012478284e-03
 1.472556681652e-02  2.990993679836e-03 -2.326244768630e-04
-2.454818099886e-10 -4.939773716977e-11 -1.837572788016e-11
 6.340965661057e-03 -7.590171044051e-04  2.206873085755e-03
 7.886640887953e-03  1.537688580423e-03  2.176982218771e-03
-1.272106982927e-10 -4.780066734218e-10  7.356616943602e-10
 9.314696771431e-11  3.428695674620e-10 -3.112755530182e-10
 7.696937510598e-10 -3.311544764569e-11 -3.962027283818e-10
 2.086134456684e-10  4.346435323616e-10  6.936274402508e-10
 6.745219880527e-03  7.574476845105e-04  1.945183645604e-03
 8.004737887384e-03 -1.523924420087e-03  2.229969372148e-03
 2.641498934104e-02  1.129992212004e-03  1.889130908199e-03
 2.653684377348e-02 -1.003886649577e-03  1.812122060474e-03
 2.805290791679e-02 -2.319181390135e-05  1.963264560401e-03
 8.269969960748e-03 -6.111336939221e-04  2.550932363811e-03
-9.638845844918e-10  6.727349471539e-11  1.794905978153e-11
 8.424733619729e-03  6.510577486115e-04  2.461199330302e-03
-1.006852629969e-09 -7.412621079724e-11  3.665281651129e-11
 9.358502769324e-03 -3.921473453553e-04  2.839129908399e-03
 9.416160117798e-03  4.152495231090e-04  2.815299350270e-03
-6.911815201506e-10  1.154683044555e-10 -1.158072666858e-10
-1.192074298569e-09 -6.411150123613e-11 -2.597224593606e-10
 9.942785483898e-03  1.512480546556e-04  3.080071813767e-03
 2.103864817005e-09 -5.119224977127e-10 -1.449981300750e-10
 5.317587551977e-10  2.014568013649e-10 -1.158510636205e-10
 9.897266227418e-03 -1.578085517294e-04  3.114120497389e-03
 2.432540814724e-02  1.568057097446e-03 -3.012330630814e-03
 1.846127225547e-02  4.655910997975e-04 -2.930274963619e-03
 9.474296922964e-03 -1.190630150348e-04 -1.741229148269e-03
 1.017441762887e-02  2.352097592985e-05 -1.851452221194e-03
 1.468666068123e-02 -3.729121239827e-03 -1.743089969594e-03
 3.327877411269e-09 -1.996957055578e-10 -1.319655144613e-09
 2.366732817283e-02 -9.926358535718e-04 -2.640876128069e-03
 1.850593041625e-02 -5.731082733868e-05 -2.761896992729e-03
 1.019785091546e-02  4.835985521886e-04 -1.906844715557e-03
 1.067120544138e-09  1.367689785610e-09 -5.303801562721e-10
-1.471688520377e-09 -7.997981095023e-10 -5.758195788419e-10
 1.167060767040e-09 -9.878514064053e-10  4.729094263929e-10
 1.761607227399e-02 -4.137285458235e-04 -2.786503518387e-03
-1.421289355502e-09 -2.662045415684e-10 -4.697721798043e-10
 1.157372340549e-09  2.421769584768e-09  6.400102284111e-10
 6.330983958685e-10 -2.322351546769e-09  2.167526553066e-09
 6.853770677989e-03 -1.121814595970e-03 -1.378185271984e-03
-1.417471714683e-09  5.929476638582e-10 -4.241591507238e-10
 1.475490730863e-02  1.991979674033e-03 -2.456547516904e-03
 2.200321846155e-10 -6.691764601831e-10 -2.488346360536e-11
 1.476126130932e-02 -1.482918081374e-03 -2.595472649506e-03
 1.226574663255e-03 -8.749481193839e-04 -2.372338676173e-04
 9.233839757819e-03 -3.150941085642e-04 -1.806376262088e-03
 5.857116032192e-10  9.636896382902e-10 -1.886765262767e-10
 8.082722910524e-10  7.619278984603e-10  2.981335557847e-10
 3.184351741402e-09  2.491105600194e-10 -9.204847634574e-11
 5.390071948964e-10  2.204565464469e-10  5.538037859685e-10
 4.987068619201e-03 -2.544001977538e-03 -9.607743146175e-04
 5.915494074818e-09  4.147635401811e-10 -3.595830594219e-10
 5.611437859573e-10 -3.896612757983e-12  3.822352354182e-10
 6.724748208972e-03  1.128460807417e-03 -1.105230276658e-03
 2.418303883939e-02 -1.832551705386e-04 -2.612013678906e-03
 2.425548557444e-02  1.577140031839e-04 -2.594952107605e-03
 5.549598715496e-09 -1.965239904644e-09  6.000980643430e-10