# vtk DataFile Version 3.0
jet_engine_blade

ASCII

DATASET UNSTRUCTURED_GRID

POINTS 15347 float
 0.062063571066  0.145432248712  0.183966889977
 0.057891380042  0.146074503660  0.189428240061
 0.065782211721  0.144723296165  0.081049330533
 0.074196577072  0.142629727721  0.054427199066
 0.070234730840  0.143701493740  0.082065619528
 0.074196577072  0.142629727721  0.216427206993
 0.011591795832  0.142629727721  0.216427206993
 0.011591795832  0.142629727721  0.054427199066
 0.052915360779  0.146630853415  0.190335437655
 0.028103880584  0.065036989748  0.069427199662
 0.028103880584  0.065036989748  0.201427206397
 0.030894186348  0.062491118908  0.069427199662
 0.030894186348  0.062491118908  0.201427206397
 0.047329269350  0.062491118908  0.141520410776
 0.054894186556  0.062491118908  0.069427199662
 0.036040503532  0.062491118908  0.148721039295
 0.054894186556  0.062491118908  0.201427206397
 0.039620362222  0.062491118908  0.140776738524
 0.057835444808  0.066980943084  0.069427199662
 0.057835444808  0.066980943084  0.201427206397
 0.055573876947  0.071455411613  0.201427206397
 0.055573876947  0.071455411613  0.069427199662
 0.059802278876  0.075877919793  0.069427199662
 0.059802278876  0.075877919793  0.201427206397
 0.058197617531  0.081270135939  0.201427206397
 0.058197617531  0.081270135939  0.069427199662
 0.058789283037  0.083636790514  0.201427206397
 0.058789283037  0.083636790514  0.069427199662
 0.062697574496  0.088139325380  0.069427199662
 0.062697574496  0.088139325380  0.201427206397
 0.060731157660  0.092084527016  0.201427206397
 0.060731157660  0.092084527016  0.069427199662
 0.064343400300  0.095719136298  0.069427199662
 0.064343400300  0.095719136298  0.201427206397
 0.063309796154  0.102399080992  0.201427206397
 0.063309796154  0.102399080992  0.069427199662
 0.063671544194  0.103846095502  0.201427206397
 0.063671544194  0.103846095502  0.069427199662
 0.067520141602  0.109710983932  0.069427199662
 0.067520141602  0.109710983932  0.201427206397
 0.066894188523  0.110491119325  0.069427199662
 0.066894188523  0.110491119325  0.201427206397
 0.071715995669  0.138449281454  0.055512372404
 0.071715995669  0.138449281454  0.215342029929
 0.074196577072  0.139237254858  0.054427199066
 0.074196577072  0.139237254858  0.216427206993
 0.011591795832  0.139237254858  0.216427206993
 0.011591795832  0.139237254858  0.054427199066
 0.018894182518  0.110491119325  0.201427206397
 0.018894182518  0.110491119325  0.069427199662
 0.014259211719  0.138372138143  0.215240329504
 0.014259211719  0.138372138143  0.055614072829
 0.018548464403  0.110127322376  0.069427199662
 0.018548464403  0.110127322376  0.201427206397
 0.018268227577  0.109710983932  0.069427199662
 0.018268227577  0.109710983932  0.201427206397
 0.022116826847  0.103846095502  0.201427206397
 0.022116826847  0.103846095502  0.069427199662
 0.022433480248  0.101899243891  0.201427206397
 0.022433480248  0.101899243891  0.069427199662
 0.021103827283  0.096087224782  0.069427199662
 0.021103827283  0.096087224782  0.201427206397
 0.025012118742  0.091584689915  0.201427206397
 0.025012118742  0.091584689915  0.069427199662
 0.023407455534  0.086192473769  0.069427199662
 0.023407455534  0.086192473769  0.201427206397
 0.027274103835  0.083216987550  0.201427206397
 0.027274103835  0.083216987550  0.069427199662
 0.025669440627  0.077824771404  0.069427199662
 0.025669440627  0.077824771404  0.201427206397
 0.029852744192  0.072902433574  0.201427206397
 0.029852744192  0.072902433574  0.069427199662
 0.030214495957  0.071455411613  0.201427206397
 0.030214495957  0.071455411613  0.069427199662
 0.044811550528  0.362491130829  0.187579765916
 0.040636193007  0.362491130829  0.190953925252
 0.033858016133  0.362491130829  0.190415620804
 0.086550593376  0.362491130829  0.094328768551
 0.082658216357  0.362491130829  0.091808572412
 0.066534042358  0.362491130829  0.099393300712
 0.048964668065  0.146910890937  0.097207173705
 0.050098706037  0.362491130829  0.106812402606
 0.044316992164  0.147071361542  0.183927565813
 0.032225221395  0.362491130829  0.185076177120
 0.053872287273  0.146542519331  0.186894476414
 0.041184086353  0.362491130829  0.186259478331
 0.058157496154  0.146038308740  0.183943971992
 0.036922458559  0.362491130829  0.187852516770
 0.051363188773  0.146760597825  0.097935281694
 0.053482972085  0.217645317316  0.101420029998
 0.048875320703  0.146920993924  0.101702459157
 0.060848291963  0.362491130829  0.104665860534
 0.057257596403  0.290067166090  0.102834217250
 0.067049697042  0.362491130829  0.100334972143
 0.053322706372  0.146595135331  0.093550316989
 0.053998351097  0.146530061960  0.093578822911
 0.067203238606  0.362491130829  0.099570021033
 0.028548689559  0.146160379052  0.154077708721
 0.023084716871  0.145319446921  0.148642942309
 0.028136637062  0.146106526256  0.140204638243
 0.038052424788  0.078416772187  0.140647262335
 0.035990063101  0.073108218610  0.151470229030
 0.031936679035  0.136810839176  0.153993844986
 0.033733092248  0.136810839176  0.153590306640
 0.034164540470  0.126193732023  0.153758049011
 0.037381105125  0.120885185897  0.152775779366
 0.034449063241  0.073108218610  0.148115515709
 0.032857619226  0.083725325763  0.147509992123
 0.046780616045  0.067799672484  0.152150079608
 0.034071762115  0.083725325763  0.150921866298
 0.063114909484  0.145239289765  0.088600238338
 0.056770644765  0.146218397818  0.095986355515
 0.051380081260  0.146758676592  0.104136955775
 0.047063990993  0.147002083078  0.112916821693
 0.043909554909  0.147075099744  0.122180162049
 0.041966322809  0.147076403332  0.131770894444
 0.041275671630  0.147068755318  0.141532641469
 0.041869773231  0.147075567519  0.151300932978
 0.044312471570  0.147071400907  0.160746356513
 0.049542087766  0.146877711274  0.168980075477
 0.055795162063  0.146337493638  0.176497319823
 0.074196577072  0.142629727721  0.206302206498
 0.074196577072  0.142629727721  0.196177206002
 0.074196577072  0.142629727721  0.186052205507
 0.074196577072  0.142629727721  0.175927205011
 0.074196577072  0.142629727721  0.165802204516
 0.074196577072  0.142629727721  0.155677204020
 0.074196577072  0.142629727721  0.145552203525
 0.074196577072  0.142629727721  0.135427203029
 0.074196577072  0.142629727721  0.125302202534
 0.074196577072  0.142629727721  0.115177202038
 0.074196577072  0.142629727721  0.105052201543
 0.074196577072  0.142629727721  0.094927201048
 0.074196577072  0.142629727721  0.084802200552
 0.074196577072  0.142629727721  0.074677200057
 0.074196577072  0.142629727721  0.064552199561
 0.063917790552  0.145094976292  0.054427199066
 0.053452758756  0.146582931367  0.054427199066
 0.042894186489  0.147080376701  0.054427199066
 0.032335614239  0.146582930995  0.054427199066
 0.021870582428  0.145094975995  0.054427199066
 0.043522876385  0.147077482900  0.187727349561
 0.034979964245  0.146800150669  0.183008629951
 0.027760052911  0.146054970716  0.176477269286
 0.022229344969  0.145160992582  0.168481621731
 0.018603097489  0.144421913820  0.159446317786
 0.017137649503  0.144086878605  0.149798365604
 0.017890261350  0.144261294265  0.140066842405
 0.020793009171  0.144882595217  0.130764721936
 0.025013276134  0.145644518341  0.121973805336
 0.030057984085  0.146344939521  0.113622337221
 0.035925142462  0.146860842094  0.105811918049
 0.042520805526  0.147074628981  0.098592436430
 0.049773496793  0.146860612073  0.092034289146
 0.057572107433  0.146113620630  0.086180303877
 0.021870582428  0.145094975995  0.216427206993
 0.032335614239  0.146582930995  0.216427206993
 0.042894186489  0.147080376701  0.216427206993
 0.053452758756  0.146582931367  0.216427206993
 0.063917790552  0.145094976292  0.216427206993
 0.011591795832  0.142629727721  0.064552199561
 0.011591795832  0.142629727721  0.074677200057
 0.011591795832  0.142629727721  0.084802200552
 0.011591795832  0.142629727721  0.094927201048
 0.011591795832  0.142629727721  0.105052201543
 0.011591795832  0.142629727721  0.115177202038
 0.011591795832  0.142629727721  0.125302202534
 0.011591795832  0.142629727721  0.135427203029
 0.011591795832  0.142629727721  0.145552203525
 0.011591795832  0.142629727721  0.155677204020
 0.011591795832  0.142629727721  0.165802204516
 0.011591795832  0.142629727721  0.175927205011
 0.011591795832  0.142629727721  0.186052205507
 0.011591795832  0.142629727721  0.196177206002
 0.011591795832  0.142629727721  0.206302206498
 0.030214495957  0.071455411613  0.191273359725
 0.030214495957  0.071455411613  0.181119513053
 0.030214495957  0.071455411613  0.170965666381
 0.030214495957  0.071455411613  0.160811819709
 0.030214495957  0.071455411613  0.150657973037
 0.030214495957  0.071455411613  0.140504126365
 0.030214495957  0.071455411613  0.130350279693
 0.030214495957  0.071455411613  0.120196433021
 0.030214495957  0.071455411613  0.110042586350
 0.030214495957  0.071455411613  0.099888739678
 0.030214495957  0.071455411613  0.089734893006
 0.030214495957  0.071455411613  0.079581046334
 0.028103880584  0.065036989748  0.079581046334
 0.028103880584  0.065036989748  0.089734893006
 0.028103880584  0.065036989748  0.099888739678
 0.028103880584  0.065036989748  0.110042586350
 0.028103880584  0.065036989748  0.120196433021
 0.028103880584  0.065036989748  0.130350279693
 0.028103880584  0.065036989748  0.140504126365
 0.028103880584  0.065036989748  0.150657973037
 0.028103880584  0.065036989748  0.160811819709
 0.028103880584  0.065036989748  0.170965666381
 0.028103880584  0.065036989748  0.181119513053
 0.028103880584  0.065036989748  0.191273359725
 0.029852744192  0.072902433574  0.191273359725
 0.029852744192  0.072902433574  0.181119513053
 0.029852744192  0.072902433574  0.170965666381
 0.029852744192  0.072902433574  0.160811819709
 0.029852744192  0.072902433574  0.150657973037
 0.029852744192  0.072902433574  0.140504126365
 0.029852744192  0.072902433574  0.130350279693
[...]
POINT_DATA 15347

SCALARS Temperature float
LOOKUP_TABLE default
 4.575209683524e+02
 4.637143976559e+02
 4.868552628547e+02
 4.065716291387e+02
 4.671542046052e+02
 3.994567813571e+02
 3.971485996179e+02
 4.021807258474e+02
 4.672671225663e+02
 3.385941264387e+02
 3.358406223131e+02
 3.326979739098e+02
 3.299725652547e+02
 3.236900973331e+02
 3.329471681674e+02
 3.220406725536e+02
 3.303024408755e+02
 3.218107052851e+02
 3.397197125721e+02
 3.363948460043e+02
 3.469228855899e+02
 3.504619702824e+02
 3.523235378861e+02
 3.482277971316e+02
 3.642901582621e+02
 3.695000510950e+02
 3.690254051428e+02
 3.745583897133e+02
 3.814931795486e+02
 3.753451927037e+02
 3.808279577608e+02
 3.874987888172e+02
 3.947690569237e+02
 3.874232128393e+02
 3.939102853339e+02
 4.020408996712e+02
 3.959317697964e+02
 4.042940437821e+02
 4.098321942606e+02
 4.009321739860e+02
 4.105395865469e+02
 4.016825627939e+02
 4.220735153106e+02
 4.117595478638e+02
 4.051218630892e+02
 3.958329452824e+02
 3.955712531940e+02
 3.985456110207e+02
 4.008183535193e+02
 4.088122166705e+02
 4.109037729976e+02
 4.148520301071e+02
 4.085620792146e+02
 4.005787524473e+02
 4.083687334227e+02
 4.003809330827e+02
 3.955853652964e+02
 4.032962355950e+02
 3.926174252584e+02
 4.000752036527e+02
 3.933875389222e+02
 3.864909102277e+02
 3.794899977553e+02
 3.858964520656e+02
 3.791103227136e+02
 3.732417446679e+02
 3.677762837595e+02
 3.734063062981e+02
 3.626603643209e+02
 3.581270293462e+02
 3.499187100428e+02
 3.538132333800e+02
 3.467433325495e+02
 3.504565590149e+02
 7.084625577411e+02
 7.058271891408e+02
 7.003321858070e+02
 8.386192774886e+02
 8.330451713848e+02
 7.790863195917e+02
 4.940786501583e+02
 7.126882589261e+02
 4.644585382576e+02
 6.922602679526e+02
 4.668208900541e+02
 7.029455702950e+02
 4.659117720607e+02
 6.989253543719e+02
 4.948581359972e+02
 7.236243861906e+02
 4.896125114977e+02
 7.509601034374e+02
 7.370682481780e+02
 7.802036682228e+02
 5.024408443677e+02
 5.034377761900e+02
 7.819116658846e+02
 4.356430613217e+02
 4.436169352798e+02
 4.417400761644e+02
 3.506578588674e+02
 3.409816378740e+02
 4.308986730315e+02
 4.318030711689e+02
 4.155010474458e+02
 4.088692304823e+02
 3.412946585379e+02
 3.581031606116e+02
 3.334767118328e+02
 3.577560322046e+02
 5.010542376159e+02
 4.995419123116e+02
 4.903141430483e+02
 4.818150148654e+02
 4.758578712811e+02
 4.707995548274e+02
 4.689677725263e+02
 4.671765816875e+02
 4.656274460563e+02
 4.665043498976e+02
 4.655311024997e+02
 3.976122419340e+02
 3.994223995559e+02
 4.024380363770e+02
 3.995548510811e+02
 3.970967821734e+02
 3.961452741165e+02
 3.976323067542e+02
 3.984961656030e+02
 3.998213506336e+02
 4.038524314965e+02
 4.083929333877e+02
 4.192896894641e+02
 4.261017676683e+02
 4.166714871045e+02
 4.088554946658e+02
 4.502802398038e+02
 4.621326734517e+02
 4.631765443437e+02
 4.580196740264e+02
 4.439339902518e+02
 4.683941956008e+02
 4.649927613138e+02
 4.593420868600e+02
 4.525634665381e+02
 4.468159007043e+02
 4.428215281895e+02
 4.460213712377e+02
 4.528014999662e+02
 4.615575494187e+02
 4.695349636665e+02
 4.770524721891e+02
 4.869892528523e+02
 4.971313553465e+02
 5.040827728230e+02
 4.380012379445e+02
 4.502690063963e+02
 4.539157836178e+02
 4.513656860497e+02
 4.392878286054e+02
 4.021558207168e+02
 4.019226273317e+02
 4.027379111210e+02
 4.012528288072e+02
 4.039013984783e+02
 4.036785502181e+02
 4.048003316592e+02
 4.053696599330e+02
 4.056278364069e+02
 4.071503995828e+02
 4.046020459167e+02
 4.015193322110e+02
 3.978285853297e+02
 3.991391377559e+02
 3.981515867062e+02
 3.461165830197e+02
 3.452478675733e+02
 3.441585261388e+02
 3.424113192281e+02
 3.406289856200e+02
 3.415173472841e+02
 3.439579778612e+02
 3.458615323178e+02
 3.472753493830e+02
 3.482687103117e+02
 3.491587022955e+02
 3.498413853173e+02
 3.380348956310e+02
 3.375123239180e+02
 3.368895958146e+02
 3.360639660835e+02
 3.351068846285e+02
 3.336153443668e+02
 3.316646832062e+02
 3.313597161443e+02
 3.324545686220e+02
 3.336974165158e+02
 3.345060473022e+02
 3.352989291942e+02
 3.491432292224e+02
 3.483781919907e+02
 3.472641367987e+02
 3.453407944837e+02
 3.434562715591e+02
 3.444525128041e+02
 3.470334424064e+02
 3.490729446128e+02
 3.505928077607e+02
 3.516093069634e+02
 3.525961483057e+02
 3.530883200631e+02
 3.322010856613e+02
 3.317482539222e+02
 3.312195332180e+02
 3.305467519045e+02
 3.296856764118e+02
 3.281486545469e+02
 3.262566421159e+02
 3.257779041183e+02
 3.271453174093e+02
 3.283349123341e+02
 3.290639105488e+02
 3.298703461955e+02
 3.584125395469e+02
 3.568800423262e+02
 3.556029383161e+02
 3.539854964912e+02
 3.522177454706e+02
 3.532358748937e+02
 3.557308200964e+02
 3.577075427766e+02
 3.597101942308e+02
 3.607753926160e+02
 3.617735204056e+02
 3.631808670971e+02
 3.672101735046e+02
 3.661399488470e+02
 3.647124152444e+02
 3.627244625307e+02
 3.605984185417e+02
 3.617053156800e+02
 3.648359626024e+02
 3.673079202455e+02
 3.692429545691e+02
 3.706876669605e+02
 3.718200161918e+02
 3.727583962053e+02
 3.711673065811e+02
 3.694216242926e+02
 3.675024779301e+02
 3.655713859410e+02
 3.639457387273e+02
 3.649728936644e+02
 3.677448961062e+02
 3.702188170872e+02
 3.722568111385e+02
 3.728739418924e+02
 3.743540065054e+02
 3.769412537989e+02
 3.790811374986e+02
 3.780359298599e+02
 3.763649878495e+02
 3.741740819116e+02
 3.722350324494e+02
 3.733936477350e+02
 3.766801133617e+02
 3.795248405283e+02
 3.817388446041e+02
 3.834656567177e+02
 3.847089243064e+02
 3.855567004494e+02
 3.856039248466e+02
 3.841299216661e+02
 3.818334251192e+02
 3.795472478317e+02
 3.777343348916e+02
 3.790153868050e+02
 3.821733214377e+02
 3.851758170186e+02
 3.874363122902e+02
 3.890062423399e+02
 3.905966288549e+02
 3.925190160029e+02
 3.921261066168e+02
 3.908812877276e+02
 3.890652292309e+02
 3.866486971450e+02
 3.845269275140e+02
 3.859729177729e+02
 3.896124604668e+02
 3.928350254233e+02
 3.953071945393e+02
 3.972112013340e+02
 3.986139934300e+02
 3.996477691559e+02
 3.952073707877e+02
 3.938862868873e+02
 3.920526301321e+02
 3.895421224161e+02
 3.873545338214e+02
 3.887893929565e+02
 3.925715605696e+02
 3.959260858924e+02
 3.984612010285e+02
 4.004299986377e+02
 4.018729895380e+02
 4.028985525073e+02
 3.997862230224e+02
 3.983922629631e+02
 3.965733136739e+02
 3.939833452770e+02
 3.918458969503e+02
 3.933191668937e+02
 3.971794539557e+02
 4.006358461604e+02
 4.032199106514e+02
 4.051834735858e+02
 4.066433353517e+02
 4.077238755325e+02
 4.360558681381e+02
 4.354873870048e+02
 4.214800771044e+02
 3.957559286261e+02
 3.964302108699e+02
 3.984125891500e+02
 3.987690675987e+02
 4.011381184260e+02
 4.034401272445e+02
 4.049122264345e+02
 4.042510105250e+02
 4.032040865667e+02
 4.019774149450e+02
 4.009312989254e+02
 4.013378330124e+02
 4.013021538060e+02
 4.013014736887e+02
 4.002719403042e+02
 4.133280865813e+02
 4.279384761405e+02
 4.297583578745e+02
 4.339116559236e+02
 4.450383347007e+02
 4.472096906974e+02
 4.439418867220e+02
 4.322566526790e+02
 4.143818144690e+02
 4.295998626552e+02
 4.311294561861e+02
 4.030090031010e+02
 4.037568133116e+02
 4.039807892463e+02
 4.035559018519e+02
 4.434161739685e+02
 4.423006216074e+02
 4.250976938877e+02
 4.384082055983e+02
 4.517454040109e+02
 4.566197724749e+02
 4.560190145935e+02
 4.453544130516e+02
 4.127324224302e+02
 4.129432286011e+02
 4.122395621378e+02
 4.109631839091e+02
 4.076834251439e+02
 4.154793459294e+02
 4.240743405525e+02
 4.158492098770e+02
 4.092427793276e+02
 4.023404082818e+02
 3.986065921001e+02
 3.955693966678e+02
 3.942584587797e+02
 3.959588898866e+02
 3.976437528465e+02
 3.994390016339e+02
 3.999006701425e+02
 3.994313493686e+02
 3.984146452061e+02
 4.003004442099e+02
 3.992655160006e+02
 3.981903417597e+02
 3.973566387785e+02
 3.971877299050e+02
 3.980155911389e+02
 3.997433901170e+02
 4.019677226945e+02
 4.044161891423e+02
 4.065218406021e+02
 4.082557738970e+02
 4.095242656846e+02
 3.954485157241e+02
 3.942565722516e+02
 3.933888881025e+02
 3.923099807910e+02
 3.922550709985e+02
 3.930190007675e+02
 3.946703240127e+02
 3.970239852030e+02
 3.992475826854e+02
 4.009829975315e+02
 4.027088275300e+02
 4.037296136799e+02
 3.935156435795e+02
 3.924840582994e+02
 3.914875068055e+02
 3.906110575346e+02
 3.904354981114e+02
 3.912012456860e+02
 3.928664789105e+02
 3.950767901500e+02
 3.971483422193e+02
 3.990024768777e+02
 4.006228396309e+02
 4.016008231655e+02
 3.865320458835e+02
 3.852290460231e+02
 3.841551484195e+02
 3.833042716969e+02
 3.830794077844e+02
 3.838904271768e+02
 3.854082226971e+02
 3.873493421895e+02
 3.892440002014e+02
 3.909809871817e+02
 3.923456562004e+02
 3.938947915319e+02
 3.803079712781e+02
 3.795027600647e+02
 3.783585473432e+02
 3.774861811857e+02
 3.771943412916e+02
 3.778985284511e+02
 3.794197169258e+02
 3.813001953110e+02
 3.831312591406e+02
 3.847334108342e+02
 3.861723460669e+02
 3.869841801891e+02
 3.759086106720e+02
 3.750606775152e+02
 3.733511516460e+02
 3.726113607158e+02
 3.723829891613e+02
 3.730680277872e+02
 3.746915365036e+02
 3.763333273381e+02
 3.780574155673e+02
 3.795572175432e+02
 3.806456928909e+02
 3.813547736975e+02
 3.684311813415e+02
 3.675466081407e+02
 3.664696632250e+02
 3.655856460139e+02
 3.652243422137e+02
 3.658595312127e+02
 3.673940428088e+02
 3.690285170442e+02
 3.706618508293e+02
 3.719423328028e+02
 3.730670344316e+02
 3.741189025065e+02
 3.637237331773e+02
 3.630530912388e+02
 3.622018978342e+02
 3.612280985176e+02
 3.607093686911e+02
 3.612959273847e+02
 3.626265891460e+02
 3.643838298091e+02
 3.658834060196e+02
 3.673401721346e+02
 3.683518156041e+02
 3.690049194199e+02
 3.549875968558e+02
 3.534435544832e+02
 3.515457271683e+02
 3.510839145172e+02
 3.508231850742e+02
 3.519602722475e+02
 3.530959997817e+02
 3.540906328197e+02
 3.557838839321e+02
 3.561685683957e+02
 3.571811841875e+02
 3.594985945930e+02
 3.461813715436e+02
 3.454981013622e+02
 3.445636480086e+02
 3.436674244159e+02
 3.432649789578e+02
 3.437859333286e+02
 3.449087133450e+02
 3.462342554656e+02
 3.473880985291e+02
 3.483781348138e+02
 3.492672209687e+02
 3.498833239562e+02
 3.376882942378e+02
 3.370382600534e+02
 3.374105897527e+02
 3.376513732313e+02
 3.378921567099e+02
 3.381329401885e+02
 3.383737236670e+02
 3.386145071456e+02
 3.388552906242e+02
 3.390960741028e+02
 3.399390665112e+02
 3.406440307354e+02
 3.295819715564e+02
 3.293503372692e+02
 3.289027727337e+02
 3.280321609711e+02
 3.279669190908e+02
 3.280842989779e+02
 3.288329450738e+02
 3.294315851764e+02
 3.305538581891e+02
 3.312151319722e+02
 3.317182488606e+02
 3.320673453070e+02
 3.220231036661e+02
 3.244073431177e+02
 3.260115306378e+02
 3.280848932130e+02
 7.011121014310e+02
 6.977257426560e+02
 6.954080391665e+02
 6.940695034123e+02
 6.933711660485e+02
 6.929825410908e+02
 6.928390153214e+02
 6.924339297557e+02
 6.915307928864e+02
 6.904331041993e+02
 6.892832767208e+02
 6.877840656225e+02
 6.859407371620e+02
 6.833094434362e+02
 6.792888394589e+02
 6.728848320567e+02
 6.634813928165e+02
 6.490777475882e+02
 6.274593493183e+02
 5.944184321366e+02
 5.438347133830e+02
 5.446216170008e+02
 5.974243171707e+02
 6.318687143206e+02
 6.544663690814e+02
 6.693253864167e+02
 6.790808138610e+02
 6.855458068920e+02
 6.899044694959e+02
 6.928896753454e+02
 6.949004441566e+02
 6.962742613128e+02
 6.971518584345e+02
 6.977224654205e+02
 6.981473339835e+02
 6.985138880075e+02
 6.988960324510e+02
 6.993874633639e+02
 7.001055703993e+02
 7.012048567870e+02
 7.028437628183e+02
 7.052091521684e+02
 6.969224512000e+02
 6.937201579034e+02
 6.919871624661e+02
 6.902613825011e+02
 6.893842087947e+02
 6.887595582068e+02
 6.884106033878e+02
 6.883229579796e+02
 6.877964548207e+02
 6.870326948657e+02
 6.859741583116e+02
 6.846036548472e+02
 6.826557354428e+02
 6.798167069916e+02
 6.760847647615e+02
 6.701361607862e+02
 6.607992537617e+02
 6.466621947590e+02
 6.253503006531e+02
 5.929400775868e+02
 5.436751725669e+02
 6.926904747046e+02
 6.873522421131e+02
 6.841298165074e+02
 6.822085373214e+02
 6.809029024691e+02
 6.807365654406e+02
 6.810765441350e+02
 6.824037706061e+02
 6.866430860777e+02
 6.955963502924e+02
 7.111705822612e+02
 7.363123090904e+02
 7.741425729796e+02
 8.108032707181e+02
 8.303817609884e+02
 8.282505864361e+02
 8.266589046250e+02
 8.251873846790e+02
 8.236898064924e+02
 8.221680653737e+02
 8.206099428251e+02
 8.190559646407e+02
 8.176667017742e+02
 8.163381064780e+02
 8.147925750203e+02
 8.130982244136e+02
 8.110917402272e+02
 8.081765393298e+02
 8.035472244265e+02
 7.962650979474e+02
 7.848447614572e+02
 7.671641067134e+02
 7.397978212595e+02
 6.957707481426e+02
 6.224621791345e+02
 8.357795322521e+02
 8.333945411501e+02
 8.320233333706e+02
 8.304659338750e+02
 8.292903525233e+02
 8.278578974813e+02
 8.263691165922e+02
 8.249298860515e+02
 8.236333729934e+02
 8.225260267756e+02
 8.207152438158e+02
 8.197196911081e+02
 8.178440423537e+02
 8.150144233397e+02
 8.103463092809e+02
 8.029205987166e+02
 7.913495025637e+02
 7.734635749677e+02
 7.457889309055e+02
 7.011189417498e+02
 6.258303633370e+02
 8.193823492871e+02
 7.840129595517e+02
 7.484545970159e+02
 7.255423584758e+02
 7.114436339870e+02
 7.026999180122e+02
 6.972482506140e+02
 6.939104953208e+02
 6.929799314285e+02
 6.959667316088e+02
 7.011728505470e+02
 7.399108727831e+02
 7.110046099940e+02
 7.111160806829e+02
 7.123347609574e+02
 7.142941543217e+02
 7.171928811781e+02
 7.205349133999e+02
 7.241336769065e+02
 7.252349273093e+02
 7.241916697205e+02
 7.231917966531e+02
 7.218237402569e+02
 7.208498701087e+02
 7.192880553887e+02
 7.167606545817e+02
 7.126819967047e+02
 7.069097437642e+02
 6.979164533043e+02
 6.838000927827e+02
 6.609211089648e+02
 6.261222473475e+02
 5.720508334468e+02
 5.890916388499e+02
 6.496220949741e+02
 6.893453461749e+02
 7.159029683009e+02
 7.324794881338e+02
 7.428944081135e+02
 7.501814022566e+02
 7.549620140907e+02
 7.577587880764e+02
 7.592349956575e+02
 7.608245268907e+02
 7.626565130784e+02
 7.637525596279e+02
 7.645237324324e+02
 7.658620571966e+02
 7.672804914327e+02
 7.684352418418e+02
 7.697815197172e+02
 7.709729336935e+02
 7.729222171960e+02
 7.755230165083e+02
 5.904837194777e+02
 6.511311199720e+02
 6.910712970576e+02
 7.176511660155e+02
 7.345560597012e+02
 7.448282109859e+02
 7.521209412613e+02
 7.568143341788e+02
 7.596708391498e+02
 7.612203910814e+02
 7.626696074149e+02
 7.644669486931e+02
 7.657421703995e+02
 7.668105073364e+02
 7.679830368780e+02
 7.694036385337e+02
 7.705367466814e+02
 7.720699044406e+02
 7.732316428433e+02
 7.751574027344e+02
 4.607771314410e+02
 4.562367243621e+02
 4.502000537403e+02
 4.465854742895e+02
 4.489787098968e+02
 4.555161953769e+02
 4.625740787941e+02
 4.714284864327e+02
 4.812580155177e+02
 6.881958123170e+02
 6.854958718990e+02
 6.836887655559e+02
 6.824914024179e+02
 6.816014160863e+02
 6.809888628351e+02
 6.805271029857e+02
 6.801265436923e+02
 6.796361280224e+02
 6.790152208219e+02
 6.781484881426e+02
 6.768570833078e+02
 6.749985985368e+02
 6.719971599979e+02
 6.675994115052e+02
 6.608041322830e+02
 6.508772726628e+02
 6.360451352127e+02
 6.142441978501e+02
 5.817589181000e+02
 5.336874630923e+02
 6.941764676857e+02
 6.833658657004e+02
 6.779843993217e+02
 6.759802841224e+02
 6.753937807611e+02
 6.758556056553e+02
 6.771831809348e+02
 6.798257629786e+02
 6.843958363120e+02
 5.798821086582e+02
 6.364692911679e+02
 6.729782569353e+02
 7.081480638617e+02
 7.465660078345e+02
 7.517750821538e+02
 7.574710971547e+02
 7.639660658730e+02
 7.713018915385e+02
 7.275840543156e+02
 7.300028688949e+02
 7.317805036390e+02
 7.331766946457e+02
 7.348060766538e+02
 7.360862959663e+02
 6.950510249042e+02
 6.922613262602e+02
 6.904059421814e+02
 6.890287318055e+02
 6.881303985512e+02
 6.874988832635e+02
 6.869957872857e+02
 6.865192789170e+02
 6.859950819482e+02
 6.852892562493e+02
 6.844344872644e+02
 6.831141333482e+02
 6.812059281707e+02
 6.783922175001e+02
 6.741467248908e+02
 6.677602722980e+02
 6.582244754463e+02
 6.439122379827e+02
 6.223769030016e+02
 5.898030536847e+02
 5.402546168096e+02
 6.995920388168e+02
 6.972635544167e+02
 6.955572852771e+02
 6.944437890380e+02
 6.936961793994e+02
 6.931718430156e+02
 6.927616272367e+02
 6.923659455619e+02
 6.919108898490e+02
 6.913101386534e+02
 6.904419145694e+02
 6.891145427766e+02
 6.871637116757e+02
 6.842534158784e+02
 6.799756780730e+02
 6.736073753148e+02
 6.640339990685e+02
 6.495332148037e+02
 6.275542046720e+02
 5.941605395248e+02
 5.430360251206e+02
 7.396971499493e+02
 7.386765602477e+02
 7.395416580176e+02
 7.411106253680e+02
 7.430129349561e+02
 7.459851499205e+02
 6.945754880315e+02
 6.894958005045e+02
 6.876800594929e+02
 6.888142616214e+02
 6.926306156006e+02
 6.988938490542e+02
 7.087895833137e+02
 7.248274100832e+02
 7.178314010606e+02
 6.931560548171e+02
 6.661031048414e+02
 6.288006598772e+02
 5.725802625891e+02
 4.791827902917e+02
 4.717128821742e+02
 4.650126016758e+02
 4.639739757765e+02
 4.637881426422e+02
 4.604560470593e+02
 4.625999095682e+02
 4.640923527475e+02
 4.595233372190e+02
 4.560051291342e+02
 4.204116318898e+02
 4.019817019765e+02
 3.896167077750e+02
 3.773582912695e+02
 3.642109237622e+02
 3.496928593417e+02
 3.452473493235e+02
 3.589700344684e+02
 3.721708818942e+02
 3.843811489444e+02
 3.962893391974e+02
 3.721651345335e+02
 3.844329714730e+02
 3.954095138076e+02
 4.097096701283e+02
 4.264511786092e+02
 4.328145645817e+02
 4.009016472575e+02
 3.876089226928e+02
 3.742642693211e+02
 3.594543527355e+02
 3.425639072656e+02
 4.171016797612e+02
 4.299848933792e+02
 4.538880569106e+02
 4.516636950618e+02
 4.483429772273e+02
 4.556014283762e+02
 4.546723599543e+02
 4.514833480222e+02
 4.437387510918e+02
 4.376480379504e+02
 4.372250522802e+02
 4.473618324710e+02
 4.524491599558e+02
 4.514281781144e+02
 4.539359528751e+02
 4.533674709936e+02
 4.438930401632e+02
 4.557667946597e+02
 4.573789691615e+02
 4.581459218166e+02
 4.593303442172e+02
 4.604720948558e+02
 4.675229817287e+02
 4.616881854599e+02
 4.733604230974e+02
 4.682253116191e+02
 4.514034653820e+02
 4.422113681386e+02
 4.589937698651e+02
 4.636470313402e+02
 4.613107104741e+02
 4.529719215003e+02
 4.421260579506e+02
 4.361070058502e+02
 4.424423455026e+02
 4.335793731400e+02
 4.320183494073e+02
 4.410438438048e+02
 4.307230359797e+02
 4.422197551294e+02
 4.307156684803e+02
 4.415816854921e+02
 4.351659425400e+02
 4.312416139393e+02
 4.465980854439e+02
 4.530430188502e+02
 4.528909286973e+02
 4.347109110367e+02
 4.461889821836e+02
 4.326462306578e+02
 4.290672840412e+02
 4.426486935552e+02
 4.449948310660e+02
 4.455927426473e+02
 4.555577647257e+02
 4.620027302358e+02
 4.645021919753e+02
 4.578462336811e+02
 4.460671456284e+02
 4.367838949433e+02
 4.480539970043e+02
 4.364027162937e+02
 4.431602180201e+02
 4.209055353773e+02
 4.230078391875e+02
 4.224969753262e+02
 4.191618177585e+02
 4.354973607748e+02
 4.350906639794e+02
 4.268119078960e+02
 4.345858443175e+02
 4.095896653265e+02
 4.347513481215e+02
 4.351738691066e+02
 4.349310847360e+02
 4.155429389239e+02
 4.335425564278e+02
 4.162422676380e+02
 4.306455921473e+02
 4.152810349530e+02
 4.290574462124e+02
 4.132301865383e+02
 4.299856189819e+02
 4.101475376795e+02
 4.305203345668e+02
 4.060201838014e+02
 4.294407871996e+02
 4.014529357089e+02
 4.288763198309e+02
 4.025595316838e+02
 4.291622481336e+02
 4.058008751293e+02
 4.075631297511e+02
 4.080497260112e+02
 4.016159585279e+02
 4.184634635963e+02
 4.307709789090e+02
 4.315719967394e+02
 4.307754391006e+02
 4.289805346977e+02
 4.253813946345e+02
 4.202584227486e+02
 4.170311798636e+02
 4.184989644110e+02
 4.300065250686e+02
 4.308363822541e+02
 4.336300715136e+02
 4.364150128444e+02
 4.409124810835e+02
 4.176516350657e+02
 4.416090461211e+02
 4.382099231629e+02
 4.198726903916e+02
 4.500059121564e+02
 4.386164837162e+02
 4.420938228413e+02
 4.437023274233e+02
 4.262310977656e+02
 4.440640507090e+02
 4.294310281691e+02
 4.292990345009e+02
 4.498646268461e+02
 4.521076285551e+02
 4.346604249017e+02
 4.391295515666e+02
 4.389998721454e+02
 4.291816665242e+02
 4.317386536378e+02
 4.323319574441e+02