# vtk DataFile Version 3.0
My problem

ASCII

DATASET UNSTRUCTURED_GRID

POINTS 85 float
0.248989794856 0.190000000000 0.000000000000
0.600000000000 0.190000000000 0.000000000000
0.600000000000 0.210000000000 0.000000000000
0.248989794856 0.210000000000 0.000000000000
0.336742346142 0.190000000000 0.000000000000
0.424494897427 0.190000000000 0.000000000000
0.512247448714 0.190000000000 0.000000000000
0.512247448714 0.210000000000 0.000000000000
0.424494897428 0.210000000000 0.000000000000
0.336742346142 0.210000000000 0.000000000000
0.358680483963 0.190000000000 0.000000000000
0.380618621784 0.190000000000 0.000000000000
0.402556759606 0.190000000000 0.000000000000
0.446433035249 0.190000000000 0.000000000000
0.468371173071 0.190000000000 0.000000000000
0.490309310892 0.190000000000 0.000000000000
0.534185586535 0.190000000000 0.000000000000
0.556123724357 0.190000000000 0.000000000000
0.578061862178 0.190000000000 0.000000000000
0.600000000000 0.195000000000 0.000000000000
0.600000000000 0.200000000000 0.000000000000
0.600000000000 0.205000000000 0.000000000000
0.270927932677 0.190000000000 0.000000000000
0.292866070499 0.190000000000 0.000000000000
0.314804208320 0.190000000000 0.000000000000
0.578061862178 0.210000000000 0.000000000000
0.556123724357 0.210000000000 0.000000000000
0.534185586536 0.210000000000 0.000000000000
0.490309310893 0.210000000000 0.000000000000
0.468371173071 0.210000000000 0.000000000000
0.446433035250 0.210000000000 0.000000000000
0.402556759607 0.210000000000 0.000000000000
0.380618621785 0.210000000000 0.000000000000
0.358680483964 0.210000000000 0.000000000000
0.314804208320 0.210000000000 0.000000000000
0.292866070499 0.210000000000 0.000000000000
0.270927932677 0.210000000000 0.000000000000
0.248989794856 0.205000000000 0.000000000000
0.248989794856 0.200000000000 0.000000000000
0.248989794856 0.195000000000 0.000000000000
0.314804208320 0.195000000000 0.000000000000
0.292866070499 0.200000000000 0.000000000000
0.270927932677 0.205000000000 0.000000000000
0.270927932677 0.195000000000 0.000000000000
0.292866070499 0.195000000000 0.000000000000
0.270927932677 0.200000000000 0.000000000000
0.336742346142 0.195000000000 0.000000000000
0.336742346142 0.200000000000 0.000000000000
0.336742346142 0.205000000000 0.000000000000
0.292866070499 0.205000000000 0.000000000000
0.314804208320 0.200000000000 0.000000000000
0.314804208320 0.205000000000 0.000000000000
0.424494897428 0.195000000000 0.000000000000
0.424494897428 0.200000000000 0.000000000000
0.424494897428 0.205000000000 0.000000000000
0.402556759607 0.205000000000 0.000000000000
0.380618621785 0.200000000000 0.000000000000
0.358680483963 0.195000000000 0.000000000000
0.380618621785 0.195000000000 0.000000000000
0.402556759606 0.195000000000 0.000000000000
0.402556759606 0.200000000000 0.000000000000
0.380618621785 0.205000000000 0.000000000000
0.358680483963 0.205000000000 0.000000000000
0.358680483963 0.200000000000 0.000000000000
0.490309310892 0.195000000000 0.000000000000
0.468371173071 0.200000000000 0.000000000000
0.446433035250 0.205000000000 0.000000000000
0.446433035249 0.195000000000 0.000000000000
0.468371173071 0.195000000000 0.000000000000
0.446433035249 0.200000000000 0.000000000000
0.512247448714 0.195000000000 0.000000000000
0.512247448714 0.200000000000 0.000000000000
0.512247448714 0.205000000000 0.000000000000
0.468371173071 0.205000000000 0.000000000000
0.490309310892 0.200000000000 0.000000000000
0.490309310893 0.205000000000 0.000000000000
0.578061862178 0.205000000000 0.000000000000
0.556123724357 0.200000000000 0.000000000000
0.534185586535 0.195000000000 0.000000000000
0.556123724357 0.195000000000 0.000000000000
0.578061862178 0.195000000000 0.000000000000
0.578061862178 0.200000000000 0.000000000000
0.556123724357 0.205000000000 0.000000000000
0.534185586535 0.205000000000 0.000000000000
0.534185586535 0.200000000000 0.000000000000

CELLS 8 128
15 0 4 3 22 23 24 40 41 42 37 38 39 43 44 45
15 3 4 9 42 41 40 46 47 48 34 35 36 49 50 51
15 8 9 4 31 32 33 48 47 46 57 56 55 61 62 63
15 4 5 8 10 11 12 52 53 54 55 56 57 58 59 60
15 5 6 8 13 14 15 64 65 66 54 53 52 67 68 69
15 8 6 7 66 65 64 70 71 72 28 29 30 73 74 75
15 2 7 6 25 26 27 72 71 70 78 77 76 82 83 84
15 6 1 2 16 17 18 19 20 21 76 77 78 79 80 81

CELL_TYPES 8
69
69
69
69
69
69
69
69

POINT_DATA 85

VECTORS Displacement float
0.000000000000 0.000000000000 0.000000000000
0.000049358423 0.000759862141 0.000000000000
-0.000005073417 0.000759386730 0.000000000000
0.000000000000 0.000000000000 0.000000000000
0.000026143465 0.000087796766 0.000000000000
0.000040348479 0.000289143756 0.000000000000
0.000047145664 0.000521712649 0.000000000000
-0.000006915440 0.000520780102 0.000000000000
-0.000010712537 0.000287740624 0.000000000000
-0.000011601294 0.000086502516 0.000000000000
0.000030538008 0.000132230303 0.000000000000
0.000034424806 0.000181317460 0.000000000000
0.000037681455 0.000233973557 0.000000000000
0.000042572430 0.000345952791 0.000000000000
0.000044422459 0.000403899827 0.000000000000
0.000045937264 0.000462585897 0.000000000000
0.000048098843 0.000581081029 0.000000000000
0.000048795609 0.000640612087 0.000000000000
0.000049185373 0.000700198770 0.000000000000
0.000035724176 0.000759758866 0.000000000000
0.000022153663 0.000759630958 0.000000000000
0.000008542329 0.000759489407 0.000000000000
0.000004695548 0.000004131933 0.000000000000
0.000013417383 0.000020262415 0.000000000000
0.000020766817 0.000049650823 0.000000000000
-0.000005180834 0.000699735195 0.000000000000
-0.000005594026 0.000639969202 0.000000000000
-0.000006171312 0.000580277017 0.000000000000
-0.000007817774 0.000461522549 0.000000000000
-0.000008785997 0.000402718285 0.000000000000
-0.000009774124 0.000344664769 0.000000000000
-0.000011499890 0.000232535043 0.000000000000
-0.000011938800 0.000179767109 0.000000000000
-0.000011989456 0.000130638550 0.000000000000
-0.000010221596 0.000048005460 0.000000000000
-0.000007130065 0.000018869384 0.000000000000
-0.000003034968 0.000002744596 0.000000000000
0.000000000000 0.000000000000 0.000000000000
0.000000000000 0.000000000000 0.000000000000
0.000000000000 0.000000000000 0.000000000000
0.000012641614 0.000048820931 0.000000000000
0.000003171024 0.000018666884 0.000000000000
-0.000000756548 0.000002356519 0.000000000000
0.000002818187 0.000003083967 0.000000000000
0.000008390079 0.000019179325 0.000000000000
0.000001155113 0.000002488490 0.000000000000
0.000016649815 0.000087164355 0.000000000000
0.000007229837 0.000086756177 0.000000000000
-0.000002194213 0.000086548834 0.000000000000
-0.000001976026 0.000018568219 0.000000000000
0.000005123454 0.000048196733 0.000000000000
-0.000002445688 0.000047919124 0.000000000000
0.000027544396 0.000288707211 0.000000000000
0.000014776973 0.000288327624 0.000000000000
0.000002030104 0.000288005781 0.000000000000
0.000000793711 0.000232755386 0.000000000000
0.000011216884 0.000180295710 0.000000000000
0.000019855371 0.000131588211 0.000000000000
0.000022797646 0.000180743929 0.000000000000
0.000025349384 0.000233476808 0.000000000000
0.000013064289 0.000233070902 0.000000000000
-0.000000355727 0.000179968632 0.000000000000
-0.000001357060 0.000130782636 0.000000000000
0.000009228688 0.000131099864 0.000000000000
0.000032461041 0.000462295054 0.000000000000
0.000017774669 0.000403256291 0.000000000000
0.000003290289 0.000344926126 0.000000000000
0.000029449182 0.000345569292 0.000000000000
0.000031082852 0.000403564468 0.000000000000
0.000016360369 0.000345227032 0.000000000000
0.000033588633 0.000521467484 0.000000000000
0.000020063653 0.000521230758 0.000000000000
0.000006565091 0.000521002101 0.000000000000
0.000004489584 0.000402974091 0.000000000000
0.000019014540 0.000462021244 0.000000000000
0.000005590375 0.000461763970 0.000000000000
0.000008366098 0.000699854095 0.000000000000
0.000021553687 0.000640292319 0.000000000000
0.000034482892 0.000580865114 0.000000000000
0.000035157459 0.000640453805 0.000000000000
0.000035557825 0.000700085905 0.000000000000
0.000021946114 0.000699968021 0.000000000000
0.000007969191 0.000640129955 0.000000000000
0.000007355290 0.000580465421 0.000000000000
0.000020906985 0.000580661688 0.000000000000

CELL_DATA 8

SCALARS Density float
LOOKUP_TABLE default
1000.000000000000
1000.000000000000
1000.000000000000
1000.000000000000
1000.000000000000
1000.000000000000
1000.000000000000
1000.000000000000

SCALARS Youngs_modulus float
LOOKUP_TABLE default
1400000.000000000000
1400000.000000000000
1400000.000000000000
1400000.000000000000
1400000.000000000000
1400000.000000000000
1400000.000000000000
1400000.000000000000

SCALARS Poissons_ratio float
LOOKUP_TABLE default
0.400000000000
0.400000000000
0.400000000000
0.400000000000
0.400000000000
0.400000000000
0.400000000000
0.400000000000
